890
Lattice="150.0 0.0 0.0 0.0 150.0 0.0 0.0 0.0 150.0" Properties=species:S:1:pos:R:3:move_mask:L:1:initial_magmoms:R:1:forces:R:3:magmoms:R:1 XYZ=T energy=-4468.8486328125 stress="0.00010150588059332222 3.0167899467414827e-07 3.014458798134001e-07 3.0163661790538754e-07 0.00010150580783374608 3.0143527851578256e-07 3.0138198781060055e-07 3.013634284343425e-07 0.00010150573507416993" free_energy=-4468.8486328125 pbc="F F F"
Fe      73.36660842      77.46157306      83.80316052  T      -5.00000000       0.96217477      -0.78354168      -0.11576821       4.02591562
Fe      71.24036448      75.34138311      83.80209746  T      -5.00000000       0.77350402      -0.69673085      -0.06704917       3.99643755
O       71.26002559      77.44937945      83.84373737  T       0.00000000       0.43812090      -0.54942822       0.03207082       0.19998246
O       73.24360339      75.46915499      83.84434331  T       0.00000000      -0.34916586       0.29193625       0.13845414       0.36543733
Fe      77.46157312      73.36660848      83.80316053  T      -5.00000000      -0.78353983       0.96217394      -0.11576652       4.02591562
Fe      75.34138313      71.24036456      83.80209755  T      -5.00000000      -0.69673097       0.77350295      -0.06704885       3.99643707
O       77.44937961      71.26002554      83.84373752  T       0.00000000      -0.54940885       0.43812484       0.03209178       0.19998252
O       75.46915472      73.24360325      83.84434341  T       0.00000000       0.29194894      -0.34917155       0.13843992       0.36543712
Fe      73.36660826      83.80316062      77.46157288  T      -5.00000000       0.96217179      -0.11577172      -0.78353965       4.02591562
Fe      71.24036498      83.80209734      75.34138339  T      -5.00000000       0.77350497      -0.06705171      -0.69673294       3.99643660
O       71.26002531      83.84373763      77.44937952  T       0.00000000       0.43811911       0.03207594      -0.54941744       0.19998258
O       73.24360238      83.84434289      75.46915481  T       0.00000000      -0.34916264       0.13844424       0.29192221       0.36543715
Fe      76.45345090      76.45345090      76.45345090  F       5.00000000      -0.04178336      -0.04178194      -0.04179448       4.38462687
Fe      80.69265748      76.46545806      80.69265760  T       5.00000000       0.65190488       0.36077052       0.65191466       4.16926193
Fe      76.46545806      80.69265750      80.69265761  T       5.00000000       0.36078686       0.65191144       0.65191537       4.16926336
Fe      80.69265733      80.69265731      76.46545842  T       5.00000000       0.65191567       0.65191263       0.36078909       4.16926336
Fe      79.65716437      79.65716434      79.65716446  T      -5.00000000       1.12512732       1.12512672       1.12512636       4.04118347
Fe      77.53251062      81.78117313      75.44607380  T      -5.00000000       0.75893080       1.29675484       0.62137228       4.35683823
Fe      81.78117320      77.53251064      75.44607376  T      -5.00000000       1.29675496       0.75887680       0.62144464       4.35683775
Fe      81.78117342      75.44607403      77.53251042  T      -5.00000000       1.29673839       0.62144285       0.75894058       4.35683632
Fe      77.53251045      75.44607382      81.78117312  T      -5.00000000       0.75895464       0.62145811       1.29674494       4.35683727
Fe      75.44607380      77.53251054      81.78117316  T      -5.00000000       0.62145358       0.75887930       1.29674602       4.35683727
Fe      75.44607388      81.78117349      77.53251048  T      -5.00000000       0.62137365       1.29674101       0.75893182       4.35683823
Fe      79.60213890      75.40388890      75.40388890  F      -5.00000000       0.00219780       0.08214557       0.08215100       4.34941721
Fe      77.51076091      77.51076074      79.65087533  T      -5.00000000       0.31479663       0.31478965       0.63715184       4.42201662
Fe      77.51076139      79.65087501      77.51076101  T      -5.00000000       0.31478307       0.63714153       0.31479126       4.42201614
Fe      75.40388890      79.60213890      75.40388890  F      -5.00000000       0.08215028       0.00220889       0.08215505       4.34941769
Fe      79.65087485      77.51076134      77.51076122  T      -5.00000000       0.63713515       0.31478778       0.31480184       4.42201614
Fe      75.40388890      75.40388890      79.60213890  F      -5.00000000       0.08216834       0.08215725       0.00220928       4.34941816
O       77.54415690      77.54415690      77.54415690  F       0.00000000       0.21128154       0.21129152       0.21127841       0.32507631
O       79.64712835      75.45093562      77.45269371  T       0.00000000       0.03467917      -0.01268902      -0.36787468       0.31833106
O       75.45093598      77.45269390      79.64712833  T       0.00000000      -0.01270023      -0.36787945       0.03465927       0.31833118
O       77.45269428      79.64712890      75.45093555  T       0.00000000      -0.36785707       0.03465825      -0.01269040       0.31833103
O       75.45093542      79.64712833      77.45269353  T       0.00000000      -0.01268490       0.03466928      -0.36786425       0.31833097
O       79.64712860      77.45269415      75.45093561  T       0.00000000       0.03466910      -0.36785263      -0.01270057       0.31833103
O       77.45269365      75.45093592      79.64712814  T       0.00000000      -0.36787093      -0.01271175       0.03478551       0.31833124
O       77.53067358      81.72241848      81.72241844  T       0.00000000      -0.26884001      -0.37926874      -0.37926835       0.36892289
O       81.61063228      77.42966357      77.42966336  T       0.00000000      -0.62514025      -0.49649650      -0.49649948       0.25566068
O       79.53126823      79.53126832      77.56193011  T       0.00000000      -0.30545437      -0.30544081       0.10408255       0.21252745
O       79.64308878      79.64308930      81.61881489  T       0.00000000      -0.02496070      -0.02496037      -0.88367057       0.57526791
O       75.45156822      81.63181013      75.45156790  T       0.00000000      -0.10659942      -0.44156975      -0.10663378       0.30092180
O       75.45156796      75.45156757      81.63181017  T       0.00000000      -0.10663244      -0.10662031      -0.44160402       0.30092147
O       79.64308853      81.61881402      79.64308920  T       0.00000000      -0.02496076      -0.88366926      -0.02496019       0.57526821
O       79.53126745      77.56193095      79.53126805  T       0.00000000      -0.30545235       0.10409206      -0.30543905       0.21252725
O       81.72241871      77.53067320      81.72241859  T       0.00000000      -0.37926352      -0.26885805      -0.37924331       0.36892262
O       77.42966365      81.61063220      77.42966349  T       0.00000000      -0.49648449      -0.62514478      -0.49648285       0.25565952
O       77.56193101      79.53126751      79.53126804  T       0.00000000       0.10409483      -0.30543664      -0.30544883       0.21252757
O       81.61881403      79.64308901      79.64308871  T       0.00000000      -0.88367534      -0.02494672      -0.02497474       0.57526803
O       81.63181000      75.45156830      75.45156781  T       0.00000000      -0.44159663      -0.10662643      -0.10663944       0.30092186
O       81.72241870      81.72241839      77.53067308  T       0.00000000      -0.37926707      -0.37926155      -0.26884690       0.36892271
O       77.42966378      77.42966367      81.61063232  T       0.00000000      -0.49649602      -0.49649930      -0.62515104       0.25566104
Fe      68.01934361      76.46034524      76.46034507  T       5.00000000      -0.60108334       0.12086893       0.12088018       4.36102533
Fe      72.25215790      76.45196729      80.65771523  T       5.00000000      -0.05146062       0.20156659       0.16080190       4.40872955
Fe      70.15993994      82.73657120      78.54432631  T       5.00000000       0.23152709      -0.12256619      -0.29027188       4.07632589
Fe      74.35455930      78.54989805      78.54989816  T       5.00000000       0.01453236       0.06071841       0.06071355       4.38700581
Fe      72.25215784      80.65771522      76.45196717  T       5.00000000      -0.05145600       0.16080378       0.20156664       4.40872908
Fe      70.15994037      78.54432667      82.73657099  T       5.00000000       0.23151860      -0.29026905      -0.12254936       4.07632589
Fe      71.16032796      79.63279962      79.63279942  T      -5.00000000      -0.70622015       0.65355808       0.65356332       4.40175915
Fe      69.10425131      81.70345185      75.40341908  T      -5.00000000      -0.09798194       0.10213262       0.00448171       3.76620722
Fe      73.30476427      77.50301390      75.40388890  F      -5.00000000       0.07535854      -0.30686429       0.01197640       4.25904465
Fe      73.30476427      75.40388890      77.50301390  F      -5.00000000       0.07533938       0.01197949      -0.30686483       4.25904417
Fe      69.10425096      75.40341884      81.70345205  T      -5.00000000      -0.09797446       0.00447916       0.10212624       3.76620770
Fe      71.20563927      75.40388890      75.40388890  F      -5.00000000       0.32095158       0.12825562       0.12825312       4.29703951
Fe      69.02468891      77.54065430      79.62695044  T      -5.00000000      -1.21231198       0.65768039       0.64745611       4.35012341
Fe      73.31565310      81.69242851      79.68635064  T      -5.00000000       0.28109655      -0.11530137       1.32486606       4.21604776
Fe      73.31565350      79.68635042      81.69242871  T      -5.00000000       0.28108907       1.32486820      -0.11530823       4.21604776
Fe      69.02468924      79.62695052      77.54065377  T      -5.00000000      -1.21232331       0.64744341       0.65770447       4.35012293
Fe      67.00697156      79.57064021      75.46380232  T      -5.00000000       0.11168420      -0.84843904       0.89937818       4.00629568
Fe      71.20616544      77.49821433      77.49821436  T      -5.00000000       0.04156363       0.03140581       0.03141879       4.35249567
Fe      67.00697125      75.46380212      79.57064055  T      -5.00000000       0.11172181       0.89936680      -0.84845287       4.00628996
O       69.17420976      77.54984572      77.54984655  T       0.00000000       0.39754778      -0.05309430      -0.05314206       0.30486259
O       73.27058505      81.59868273      81.59868285  T       0.00000000       0.24637848      -0.71461076      -0.71461248       0.28446844
O       71.24678127      75.44503190      77.46187090  F       0.00000000      -0.21942481       0.30157349       0.03200555       0.28079727
O       75.32855633      81.73601143      79.54185812  T       0.00000000      -0.56794989      -0.20792399      -0.19733337       0.21639925
O       67.08744623      77.37651545      79.65269183  T       0.00000000       0.29694229      -1.77807403       0.19234435       0.27257761
O       69.06123800      79.64386239      75.44990565  T       0.00000000      -0.19961908      -0.01981083       0.07678357       0.26514781
O       67.08744672      79.65269196      77.37651603  T       0.00000000       0.29697454       0.19232488      -1.77805007       0.27257901
O       75.32855620      79.54185859      81.73601143  T       0.00000000      -0.56794232      -0.19731855      -0.20791438       0.21639940
O       71.24678127      77.46187090      75.44503190  F       0.00000000      -0.21941656       0.03201407       0.30155045       0.28079692
O       69.06123868      75.44990583      79.64386294  T       0.00000000      -0.19984017       0.07672427      -0.01985124       0.26514935
O       73.26362127      77.46187090      77.46187090  F       0.00000000      -0.36739552       0.19968614       0.19971298       0.27474195
O       71.16042345      79.54945908      77.55040339  T       0.00000000      -0.11399762      -0.33595932       0.05535161       0.31594026
O       71.26194441      79.62397325      81.66515328  T       0.00000000       0.20902199      -0.43600544       0.14114302       0.30838907
O       75.27229531      77.55094492      83.71783990  T       0.00000000      -1.77747512       0.15430501      -0.30002141       0.24473655
O       75.27229554      83.71783999      77.55094507  T       0.00000000      -1.77746248      -0.30004263       0.15430190       0.24473625
O       71.26194486      81.66515360      79.62397450  T       0.00000000       0.20902090       0.14114426      -0.43600559       0.30838889
O       71.16042367      77.55040410      79.54945977  T       0.00000000      -0.11399373       0.05536067      -0.33595371       0.31594047
O       73.35057514      77.56593123      81.75118869  T       0.00000000      -0.03450446       0.35105902       0.20244972       0.28697824
O       69.07549036      81.67234529      77.44596327  T       0.00000000       0.17154241       0.26516831      -0.36417368       0.26390421
O       69.19309410      79.53056769      79.53056772  T       0.00000000       0.62515408      -0.43595040      -0.43592149       0.25715986
O       73.24816281      79.64789460      79.64789426  T       0.00000000      -0.37153938      -0.11555436      -0.11557177       0.35354275
O       73.26362127      75.44503190      75.44503190  F       0.00000000       0.01911311      -0.26027226      -0.26026765       0.26794821
O       73.35057617      81.75118819      77.56593091  T       0.00000000      -0.03449444       0.20244709       0.35106346       0.28697836
O       69.07549055      77.44596329      81.67234518  T       0.00000000       0.17153993      -0.36414945       0.26515380       0.26390311
Fe      83.80316062      73.36660823      77.46157292  T      -5.00000000      -0.11576617       0.96217537      -0.78353709       4.02591467
Fe      83.80209736      71.24036497      75.34138338  T      -5.00000000      -0.06705110       0.77350104      -0.69673455       3.99643660
O       83.84373750      71.26002529      77.44937932  T       0.00000000       0.03207796       0.43812311      -0.54941833       0.19998261
O       83.84434278      73.24360242      75.46915489  T       0.00000000       0.13844988      -0.34915337       0.29192546       0.36543721
Fe      76.46034413      68.01934366      76.46034519  T       5.00000000       0.12088335      -0.60107082       0.12086636       4.36102629
Fe      78.54989809      74.35455933      78.54989820  T       5.00000000       0.06073268       0.01452053       0.06070065       4.38700819
Fe      76.45196726      72.25215790      80.65771524  T       5.00000000       0.20156780      -0.05145852       0.16080260       4.40872955
Fe      82.73657129      70.15993996      78.54432638  T       5.00000000      -0.12256724       0.23152590      -0.29026914       4.07632589
Fe      80.65771524      72.25215784      76.45196714  T       5.00000000       0.16080421      -0.05145903       0.20156798       4.40872955
Fe      78.54432668      70.15994041      82.73657093  T       5.00000000      -0.29027173       0.23153307      -0.12257734       4.07632589
Fe      79.63279953      71.16032771      79.63279945  T      -5.00000000       0.65355563      -0.70621055       0.65356797       4.40175962
Fe      77.50301390      73.30476427      75.40388890  F      -5.00000000      -0.30686387       0.07535723       0.01198461       4.25904465
Fe      81.70345183      69.10425133      75.40341907  T      -5.00000000       0.10213596      -0.09797893       0.00448105       3.76620722
Fe      75.40341885      69.10425089      81.70345198  T      -5.00000000       0.00448306      -0.09797212       0.10214302       3.76620722
Fe      75.40388890      73.30476427      77.50301390  F      -5.00000000       0.01198706       0.07534128      -0.30687362       4.25904417
Fe      79.57064041      67.00697144      75.46380229  T      -5.00000000      -0.84843862       0.11168055       0.89937741       4.00629520
Fe      77.54065455      69.02468921      79.62695028  T      -5.00000000       0.65770185      -1.21231925       0.64745736       4.35012388
Fe      81.69242856      73.31565319      79.68635072  T      -5.00000000      -0.11530806       0.28111112       1.32486296       4.21604872
Fe      77.49821417      71.20616539      77.49821443  T      -5.00000000       0.03141205       0.04156674       0.03142062       4.35249615
Fe      75.40388890      71.20563927      75.40388890  F      -5.00000000       0.12824285       0.32094333       0.12824303       4.29703999
Fe      79.62695010      69.02468926      77.54065402  T      -5.00000000       0.64744419      -1.21233201       0.65770173       4.35012293
Fe      79.68635041      73.31565349      81.69242864  T      -5.00000000       1.32486272       0.28111601      -0.11530364       4.21604872
Fe      75.46380211      67.00697136      79.57064024  T      -5.00000000       0.89938617       0.11168355      -0.84842175       4.00629377
O       77.54984630      69.17421023      77.54984666  T       0.00000000      -0.05308333       0.39752540      -0.05314519       0.30486250
O       81.59868305      73.27058425      81.59868324  T       0.00000000      -0.71460491       0.24637575      -0.71461183       0.28446802
O       79.54185851      75.32855624      81.73601138  T       0.00000000      -0.19741783      -0.56795061      -0.20799777       0.21639693
O       79.65269220      67.08744644      77.37651596  T       0.00000000       0.19231233       0.29697257      -1.77806044       0.27257895
O       75.44990598      69.06123801      79.64386222  T       0.00000000       0.07674396      -0.19968143      -0.01983842       0.26514816
O       77.46187090      71.24678127      75.44503190  F       0.00000000       0.03202838      -0.21940568       0.30155239       0.28079686
O       75.44503190      71.24678127      77.46187090  F       0.00000000       0.30156422      -0.21942598       0.03201845       0.28079724
O       79.64386179      69.06123797      75.44990622  T       0.00000000      -0.01982528      -0.19962588       0.07679125       0.26514781
O       77.37651591      67.08744612      79.65269245  T       0.00000000      -1.77806807       0.29695892       0.19232284       0.27257761
O       81.73601156      75.32855668      79.54185785  T       0.00000000      -0.20794551      -0.56796104      -0.19735438       0.21639669
O       77.56593122      73.35057518      81.75118867  T       0.00000000       0.35106379      -0.03450251       0.20243517       0.28697813
O       81.67234488      69.07549081      77.44596314  T       0.00000000       0.26516402       0.17155725      -0.36418110       0.26390427
O       79.54945956      71.16042299      77.55040343  T       0.00000000      -0.33595839      -0.11400738       0.05534679       0.31594008
O       79.62397347      71.26194439      81.66515367  T       0.00000000      -0.43599966       0.20902115       0.14115196       0.30838871
O       75.44503190      73.26362127      75.44503190  F       0.00000000      -0.26027560       0.01910059      -0.26027897       0.26794812
O       83.71783986      75.27229551      77.55094497  T       0.00000000      -0.30000308      -1.77747428       0.15430856       0.24473634
O       79.64789456      73.24816328      79.64789461  T       0.00000000      -0.11554855      -0.37152612      -0.11554646       0.35354269
O       79.53056755      69.19309407      79.53056775  T       0.00000000      -0.43593985       0.62515509      -0.43594027       0.25715959
O       77.46187090      73.26362127      77.46187090  F       0.00000000       0.19968191      -0.36739007       0.19969392       0.27474183
O       77.55040363      71.16042345      79.54945950  T       0.00000000       0.05533916      -0.11399810      -0.33597434       0.31594074
O       81.66515346      71.26194451      79.62397449  T       0.00000000       0.14114138       0.20902069      -0.43600717       0.30838877
O       77.55094488      75.27229534      83.71783976  T       0.00000000       0.15428497      -1.77748227      -0.30003634       0.24473813
O       81.75118815      73.35057622      77.56593088  T       0.00000000       0.20243660      -0.03450069       0.35105219       0.28697816
O       77.44596373      69.07549034      81.67234497  T       0.00000000      -0.36416382       0.17152610       0.26517886       0.26390302
Fe      68.05129215      68.05129214      76.36011052  T       5.00000000       0.12345193       0.12353983      -0.96534890       3.99247456
Fe      74.35500263      74.35500263      82.79109767  T       5.00000000       0.05444455       0.05444831       0.49033058       4.36463022
Fe      72.28562739      68.05404594      80.66159324  T       5.00000000       0.55765331       0.01379426      -0.03723393       4.05123091
Fe      70.15490983      74.36329365      78.55701422  T       5.00000000      -0.02029880       0.03569189       0.03382576       4.39793539
Fe      68.05404593      72.28562738      80.66159325  T       5.00000000       0.01379038       0.55766398      -0.03723715       4.05123091
Fe      74.36329364      70.15490978      78.55701419  T       5.00000000       0.03569749      -0.02030258       0.03382951       4.39793396
Fe      72.25520127      72.25520127      76.45345090  F       5.00000000       0.09302717       0.09302618       0.14736080       4.38062191
Fe      71.21186267      71.21186274      79.64796802  T      -5.00000000      -0.00585475      -0.00584824       0.62971365       4.40471125
Fe      69.06892546      73.30670394      75.39318333  T      -5.00000000      -0.73067772      -0.01289329      -0.14867204       4.37334776
Fe      73.30670414      69.06892543      75.39318339  T      -5.00000000      -0.01291135      -0.73067081      -0.14866269       4.37334824
Fe      73.30691148      67.00594041      77.49787261  T      -5.00000000      -0.15027148      -0.02603152       0.04164172       4.22647333
Fe      67.00594041      73.30691123      77.49787257  T      -5.00000000      -0.02601820      -0.15023518       0.04165191       4.22647381
Fe      71.15618084      67.01035031      75.34816055  T      -5.00000000      -1.02534246       0.05202520      -1.07475579       4.22563171
Fe      69.10536072      69.10536072      79.60274035  T      -5.00000000      -0.04332954      -0.04333094       0.00432912       3.52755141
Fe      73.30928343      73.30928336      79.60237662  T      -5.00000000      -0.02618726      -0.02618907      -0.03158468       4.34305620
Fe      73.27295501      71.18132899      81.78668006  T      -5.00000000      -0.53329331      -0.62138474       1.25234985       4.34479570
Fe      69.06943117      71.20531808      77.49615432  T      -5.00000000      -0.70024973      -0.13709262      -0.00226414       4.39779711
Fe      67.01035041      71.15618098      75.34816057  T      -5.00000000       0.05200422      -1.02535713      -1.07478166       4.22563124
Fe      71.20531791      69.06943127      77.49615439  T      -5.00000000      -0.13710603      -0.70024717      -0.00227220       4.39779568
Fe      71.18132898      73.27295495      81.78668005  T      -5.00000000      -0.62138629      -0.53329509       1.25234413       4.34479570
O       69.15885541      69.15885539      77.57646929  T       0.00000000      -0.07880437      -0.07879533       0.36439672       0.23912272
O       73.25538280      73.25538283      81.63202174  T       0.00000000       0.01306570       0.01308483      -0.38597310       0.30706340
O       71.16297542      75.35737509      81.74684482  T       0.00000000       0.01050722      -0.08415264       0.19363764       0.26544985
O       71.28585376      67.07028693      77.43109328  T       0.00000000       0.77409583       0.35087746      -0.56393635       0.33350337
O       75.36274627      73.34590627      79.56099590  F       0.00000000      -0.33204544       0.34129331       0.16094388       0.28929514
O       73.43578331      71.15612202      83.71682884  T       0.00000000       1.65376532      -0.17577532      -0.27362788       0.28801715
O       69.06167121      71.26710445      75.46764271  T       0.00000000       0.18480098       0.12966913       0.16577159       0.33080989
O       67.07028712      71.28585438      77.43109379  T       0.00000000       0.35088974       0.77408963      -0.56391507       0.33350503
O       75.35737467      71.16297580      81.74684479  T       0.00000000      -0.08415020       0.01049203       0.19362235       0.26544970
O       71.26710435      69.06167097      75.46764257  T       0.00000000       0.12965912       0.18476832       0.16577180       0.33081004
O       71.15612188      73.43578343      83.71682902  T       0.00000000      -0.17577520       1.65376604      -0.27363044       0.28801703
O       73.34590627      75.36274627      79.56099590  F       0.00000000       0.34124610      -0.33207637       0.16093594       0.28929520
O       69.13897784      73.36313920      81.73279405  T       0.00000000      -0.21432419       0.39687946      -0.15996018       0.26972485
O       73.25182864      69.06232765      77.45221565  T       0.00000000      -0.08336529       0.06690188      -0.07111150       0.33318493
O       71.14955668      71.14955664      77.55860531  T       0.00000000      -0.24581075      -0.24581343       0.26317844       0.31489322
O       71.27009230      71.27009238      81.60874057  T       0.00000000       0.33377454       0.33377782      -0.75394809       0.31278798
O       67.07112252      73.22317389      75.49305314  T       0.00000000       0.28695440      -0.64985102       0.84345514       0.28623655
O       75.36274627      75.36274627      77.54415690  F       0.00000000       0.15512493       0.15513945       0.40912271       0.27343535
O       71.25253787      73.25514607      79.64590498  T       0.00000000       0.22856465      -0.05218207       0.06698439       0.31111848
O       71.13599532      69.15638871      79.54956372  T       0.00000000      -0.41041633      -0.03842255      -0.03303197       0.24238959
O       73.36313905      69.13897765      81.73279437  T       0.00000000       0.39688623      -0.21432035      -0.15996644       0.26972479
O       69.06232738      73.25182879      77.45221592  T       0.00000000       0.06687176      -0.08335909      -0.07111602       0.33318537
O       69.15638878      71.13599540      79.54956368  T       0.00000000      -0.03844427      -0.41042539      -0.03303449       0.24238926
O       73.25514605      71.25253799      79.64590490  T       0.00000000      -0.05220233       0.22852527       0.06698571       0.31111836
O       73.22317412      67.07112268      75.49305314  T       0.00000000      -0.64984047       0.28695163       0.84346408       0.28623709
O       73.34590627      73.34590627      77.54415690  F       0.00000000      -0.23642288      -0.23642594       0.35025626       0.27306747
O       66.96120747      73.36621390      79.54793843  T       0.00000000      -0.15200764       0.74252748      -0.24965791       0.25654823
O       66.96228889      75.33106171      77.55936369  T       0.00000000      -0.11179411      -0.45714098       0.26942110       0.31662938
O       73.36621456      66.96120788      79.54793856  T       0.00000000       0.74247187      -0.15207632      -0.24966493       0.25654870
O       75.33106165      66.96228902      77.55936339  T       0.00000000      -0.45710552      -0.11185398       0.26938346       0.31663042
Fe      77.46157323      83.80316110      73.36660814  T      -5.00000000      -0.78354377      -0.11575896       0.96217918       4.02591467
Fe      75.34138370      83.80209772      71.24036542  T      -5.00000000      -0.69672436      -0.06705536       0.77348745       3.99644613
O       77.44937927      83.84373698      71.26002526  T       0.00000000      -0.54943794       0.03205843       0.43809670       0.19998342
O       75.46915485      83.84434301      73.24360209  T       0.00000000       0.29191399       0.13849859      -0.34906077       0.36543879
Fe      83.80316107      77.46157329      73.36660814  T      -5.00000000      -0.11575466      -0.78354317       0.96218199       4.02591467
Fe      83.80209765      75.34138364      71.24036531  T      -5.00000000      -0.06706598      -0.69672656       0.77347767       3.99644566
O       83.84373712      77.44937917      71.26002504  T       0.00000000       0.03206487      -0.54943711       0.43809116       0.19998336
O       83.84434271      75.46915476      73.24360180  T       0.00000000       0.13849032       0.29191381      -0.34906721       0.36543918
Fe      76.46034514      76.46034515      68.01934405  T       5.00000000       0.12085801       0.12085830      -0.60110080       4.36102819
Fe      80.65771523      76.45196732      72.25215826  T       5.00000000       0.16081482       0.20152643      -0.05145941       4.40873337
Fe      78.54432642      82.73657131      70.15994046  T       5.00000000      -0.29028669      -0.12255943       0.23152739       4.07632542
Fe      76.45196736      80.65771522      72.25215827  T       5.00000000       0.20153707       0.16079812      -0.05147120       4.40873194
Fe      82.73657139      78.54432641      70.15994041  T       5.00000000      -0.12257180      -0.29029197       0.23153032       4.07632542
Fe      78.54989795      78.54989795      74.35455923  T       5.00000000       0.06070901       0.06070806       0.01452971       4.38700581
Fe      79.63279937      79.63279917      71.16032826  T      -5.00000000       0.65355819       0.65355837      -0.70621377       4.40175962
Fe      81.70345215      75.40341926      69.10425100  T      -5.00000000       0.10213828       0.00447375      -0.09794679       3.76620984
Fe      77.50301390      75.40388890      73.30476427  F      -5.00000000      -0.30686465       0.01198333       0.07534069       4.25904417