890
Lattice="150.0 0.0 0.0 0.0 150.0 0.0 0.0 0.0 150.0" Properties=species:S:1:pos:R:3:move_mask:L:1:initial_magmoms:R:1:momenta:R:3:forces:R:3:magmoms:R:1 XYZ=T energy=-4486.32861328125 stress="3.56040550286707e-06 4.361460014479235e-06 2.0345530629128916e-06 4.361409992270637e-06 1.0611402103677392e-06 5.891757609788328e-06 2.034425961028319e-06 5.891723503737012e-06 1.110372295443085e-06" free_energy=-4486.32861328125 pbc="F F F"
Fe      73.08797679      77.43900821      83.92787927  T      -5.00000000       0.19947493       0.82563298      -1.60416724       0.52341789       0.66873980       0.40993574       4.08961630
Fe      71.18712211      75.38943890      83.94539512  T      -5.00000000       1.25358182       1.15242737       2.69506016      -0.20191738       0.14092875      -0.17201328       3.73540211
O       71.11519440      77.30824093      83.92565894  T       0.00000000      -0.57616933       0.00873116       0.75456344       0.35894462       0.16686426      -0.06307472       0.06429476
O       73.19860101      75.52934833      83.92203334  T       0.00000000       0.28825842      -0.19263908      -0.26584603       0.09928304      -0.49785876      -0.09063722       0.24764049
Fe      77.10465633      73.34341738      84.00531392  T      -5.00000000      -0.80783821      -1.29201510       1.24353304       1.02168131       0.69310653      -0.03790249       4.15633059
Fe      75.17608589      71.19772269      83.74890418  T      -5.00000000       1.37613475       1.11368894       0.29297386       0.35874388       0.20519292      -0.09899125       3.74978447
O       77.20074632      71.49334754      84.03341450  T       0.00000000      -0.40288550       1.12210261       0.53965703      -0.14001095      -1.03879929      -0.24161887       0.09303750
O       75.24061889      73.27934989      83.96068561  T       0.00000000       1.13417428      -0.09254265      -0.14783865      -0.72735965      -0.14069238       0.25693092       0.23560417
Fe      73.31024581      83.99186003      77.29508999  T      -5.00000000       2.54565661       2.76326130      -3.07988936       0.48309961       0.03055298       0.84874362       3.84227920
Fe      71.45782273      84.25136296      75.43356150  T      -5.00000000      -1.42976792      -1.94707134       1.53831799      -0.42845199      -0.50254864       0.19275546       3.84727144
O       71.20393261      83.82705082      77.33303683  T       0.00000000       1.45087657      -0.19766750       1.11539696       0.46196625       0.56349850       0.76260102       0.06491992
O       73.40441660      83.92025098      75.37664961  T       0.00000000      -0.69979496       0.67512948      -0.59229852      -1.53916025       1.44036674       0.63038164       0.21479228
Fe      76.45345090      76.45345090      76.45345090  F       5.00000000       0.00000000       0.00000000       0.00000000      -0.15494373       0.39876217       0.08664554       4.40714645
Fe      80.96785242      76.24917504      80.71535309  T       5.00000000      -1.43483592       0.14053195      -0.97203996      -1.89924026       1.52459073       1.57223845       4.34099007
Fe      77.29384667      79.86436316      81.63396709  T       5.00000000       2.86179773       0.76762385       2.34061635      -0.61363029       0.71048015      -0.40442494       4.18707943
Fe      80.78450690      80.86567870      76.96315542  T       5.00000000       0.50982610      -0.80289587       1.58604996       0.51469117      -0.58817905      -0.30944958       4.27177000
Fe      79.95886598      79.49609949      79.94145850  T      -5.00000000      -1.93472341      -0.35535558       1.95242059       0.82027572      -0.80332601      -0.54964602       4.26866674
Fe      77.70024020      81.75441123      75.67654750  T      -5.00000000      -1.80486140      -1.92012086      -0.89691326      -0.09183370       0.13482769      -0.15808871       4.34384871
Fe      81.85806085      77.70251765      75.62428614  T      -5.00000000       1.13702602       4.62777102       0.49296076       0.92052418      -1.12239647      -0.50694823       4.41187191
Fe      82.10124111      75.32859936      77.52637972  T      -5.00000000       0.86784055       4.24875369      -1.24285354      -0.14555916       0.78802872      -0.69124365       4.41039038
Fe      77.52577430      75.45322045      82.01966648  T      -5.00000000      -0.81186920       2.07930098      -0.55904922       0.54694736       0.14394420       0.10312566       4.34850121
Fe      75.42420900      77.56463895      81.97357918  T      -5.00000000       1.45287809       0.16728342       1.32719144      -0.34420875      -0.36583734       0.36833376       4.34595728
Fe      75.45924245      81.87117797      77.53428629  T      -5.00000000       0.15505250      -0.31031841      -0.99876217       0.20364249       1.25489664      -0.75618100       4.35577154
Fe      79.60213890      75.40388890      75.40388890  F      -5.00000000       0.00000000       0.00000000       0.00000000       0.72914112       0.22097488      -0.28803825       4.37385988
Fe      77.44180131      77.54836138      79.77159130  T      -5.00000000       1.09216669      -0.58828599      -0.05450192      -0.22426710      -0.38346973      -0.39078987       4.37870216
Fe      77.57988238      79.38938749      77.51688720  T      -5.00000000      -0.41542396       0.39029754      -1.43955434      -0.04816253       1.79806817      -0.10197370       4.39583778
Fe      75.40388890      79.60213890      75.40388890  F      -5.00000000       0.00000000       0.00000000       0.00000000       0.51231962       0.70057553       0.33496711       4.12282562
Fe      79.88280863      77.49394196      77.68636852  T      -5.00000000       2.25336634      -0.60907785      -1.03862989      -0.20321441      -0.11716206       0.08719231       4.41750097
Fe      75.40388890      75.40388890      79.60213890  F      -5.00000000       0.00000000       0.00000000       0.00000000       0.22799429       0.77695978       0.53259426       4.35463953
O       77.54415690      77.54415690      77.54415690  F       0.00000000       0.00000000       0.00000000       0.00000000       0.31757528      -1.29536450       0.47747710       0.30275172
O       79.76003480      75.36463087      77.33719532  T       0.00000000       0.65727648       0.05791066      -0.18366815      -0.09128118       0.55841738       0.50689125       0.32643735
O       75.35655120      77.35117447      79.79401947  T       0.00000000      -1.43240260      -0.84052344      -0.95388166       0.58902007       0.33844340       0.06436729       0.29759422
O       77.56149902      79.57142619      75.48979639  T       0.00000000      -0.59544008      -0.49540220      -0.53039415      -0.48262399       0.43942857       0.06775531       0.30455691
O       75.64636019      79.70026100      77.44869342  T       0.00000000       0.10502043       1.50193568       1.31580959      -0.84279108       0.42962551      -0.66178274       0.30327147
O       79.80016486      77.62648212      75.71529006  T       0.00000000      -0.84328794      -0.11274379      -0.27606683      -0.22450984      -1.24917912      -1.03894532       0.31094381
O       77.39322457      75.50749782      79.73179154  T       0.00000000       0.61008818      -0.78581675      -0.44387548      -0.12565306      -0.23951599      -0.18592006       0.33009899
O       76.60118233      81.64215818      82.23624037  T       0.00000000       1.05239577       0.57281236       0.14157576       0.22492462       0.05630386       0.11576548       0.07059595
O       81.80649438      77.43326071      77.49922252  T       0.00000000      -0.78863450      -1.07063302      -0.91490272      -0.09508505      -0.98834932       0.52658188       0.36358047
O       79.51717513      79.48208781      77.64777821  T       0.00000000       0.29375673       0.17623720      -1.11174043       0.24543625      -0.10570067       1.02800488       0.26042134
O       81.24554254      78.36495626      81.01204074  T       0.00000000       1.16282238      -0.17580576       1.59523156      -0.76785326      -0.59173310      -1.55988884       0.12029089
O       75.62804379      81.90485764      75.48625265  T       0.00000000      -0.14581994      -0.42135332      -0.01068010      -0.03410858      -1.40471792       0.29070282       0.26575685
O       75.55959152      75.55762629      81.80816421  T       0.00000000       0.48274949      -0.85069607      -0.97452285      -0.69467902      -0.59744978       0.37566617       0.27630147
O       79.03755385      80.56456630      81.18497884  T       0.00000000      -0.53778890      -0.43826127      -1.29486083      -0.44620341      -0.34959918      -0.25817731       0.11504667
O       79.41647743      77.45414230      79.60554050  T       0.00000000       1.43431433      -1.31576785       0.42344697       0.38364667       0.37896210      -0.17511822       0.30104017
O       82.38207539      75.96765207      81.95577707  T       0.00000000      -0.05008546      -0.13348447      -0.29000884      -0.10239974      -0.01007169      -0.23891830       0.07009496
O       77.45238885      81.74154915      77.55397192  T       0.00000000       0.44226558      -0.01792721       0.71697345       0.16485694      -0.26450461       0.61156833       0.22657403
O       77.15818141      79.52593093      79.49079331  T       0.00000000       1.40760017       0.30350439      -0.92069846       0.63830018      -0.42847168       0.84052211       0.29459038
O       81.12400378      80.73866160      79.10390514  T       0.00000000       0.71770869      -0.16566844      -0.03576261      -0.07788377      -0.06728691      -0.13515356       0.15737496
O       81.63947004      75.38846146      75.40937287  T       0.00000000      -0.50658071      -0.09192296       0.87281317      -0.44001514       0.58046067       1.00481117       0.27037677
O       82.32687624      82.01802054      77.00242865  T       0.00000000      -0.14082261       1.84011645      -0.16313676       0.06694794      -0.28529677      -0.08207029       0.06456810
O       77.42378275      77.77301977      81.75834007  T       0.00000000       0.17070046       1.44020658      -0.66552142       0.06320372      -0.46298474       0.12890971       0.29948032
Fe      67.95242311      76.19507719      76.58467756  T       5.00000000      -1.72318988       1.05594883       0.27593891      -1.04277229       1.04224241      -0.51689702       4.19077110
Fe      72.37552521      76.40468957      80.78398062  T       5.00000000       1.57801678      -0.70823126      -0.74442043      -0.77662677       1.04922664      -0.32360178       4.32418299
Fe      70.27785010      82.32941848      78.47809066  T       5.00000000      -2.24221652       1.00541433      -0.01156987      -0.27162945       0.83278739      -1.52819490       3.83064342
Fe      75.13127756      79.59873162      79.30204657  T       5.00000000       2.65495924       0.28575130       0.87421284       0.83076429      -1.00415373       0.44693995       4.41363764
Fe      72.45361075      80.88069990      76.40702786  T       5.00000000       0.69433321      -1.15924379      -1.50284327      -1.31345880      -0.74781346       0.13324563       4.38382959
Fe      70.10598279      78.46290481      82.76035272  T       5.00000000       0.00192924      -2.69439069      -0.12968400      -0.13247697      -0.05446974      -0.86662900       3.67529392
Fe      71.21706719      79.68528905      79.82055567  T      -5.00000000       0.43812580      -2.85729048       0.57603617      -0.43071395      -0.61114675      -0.37350792       4.36537218
Fe      69.12933281      81.86100100      75.18738121  T      -5.00000000       1.74311431       1.04136520      -0.48118159       0.36582631       0.08256111      -0.50202370       3.94203615
Fe      73.30476427      77.50301390      75.40388890  F      -5.00000000       0.00000000       0.00000000       0.00000000      -0.07381180       0.37005094       1.22103548       4.32276964
Fe      73.30476427      75.40388890      77.50301390  F      -5.00000000       0.00000000       0.00000000       0.00000000      -0.48820174       1.23377442       0.17081323       4.32376814
Fe      68.79645286      75.40001464      81.68646609  T      -5.00000000      -2.91804351       2.02858227       1.36787079       0.52002895       0.15050560      -0.14163703       3.86087155
Fe      71.20563927      75.40388890      75.40388890  F      -5.00000000       0.00000000       0.00000000       0.00000000      -0.14168078       0.15547511       0.32804635       4.40120935
Fe      68.93548604      77.47372550      79.58971988  T      -5.00000000      -2.88496589      -1.90870256      -2.21776657      -0.61628729       0.33332250       0.93140495       4.40517902
Fe      73.24737200      81.68278358      79.80195882  T      -5.00000000       0.39327613       1.74035647      -0.22422155       0.55314654       1.08612955      -0.28632188       4.27899265
Fe      73.44745679      79.73040933      81.82439075  T      -5.00000000      -0.46466070      -3.60083538      -1.84115323      -0.61818969      -0.80028355       0.06653053       4.21566343
Fe      68.96062934      79.62873620      77.47459726  T      -5.00000000       0.10030025       1.93199082       1.73726024       0.15150219       0.63198113      -0.24231660       4.34669590
Fe      66.94937113      79.29601922      75.13992804  T      -5.00000000      -2.38298074      -0.17380299       2.03190780       0.30334350       0.03975951       1.10004389       3.79557848
Fe      71.16345141      77.60331120      77.62557611  T      -5.00000000       3.17674751       1.76875753      -1.20948735       1.00344646      -0.11182416       0.02393362       4.16474676
Fe      66.62004760      75.32129598      79.43617848  T      -5.00000000       0.72576502      -1.97291881      -0.18853126       0.51705235       2.01816559      -0.28982577       3.85596442
O       69.06447869      77.59898357      77.62301922  T       0.00000000      -1.20587266      -0.54223558      -0.05623302       0.34316894      -0.91995001      -0.90727419       0.29271495
O       73.52468463      81.58398005      81.80824866  T       0.00000000       0.10894600       0.80938865       0.80878124      -0.19766331       0.65688223      -0.35868084       0.14682150
O       71.24678127      75.44503190      77.46187090  F       0.00000000       0.00000000       0.00000000       0.00000000       0.01988488       0.15716577      -0.18757266       0.33197111
O       75.16201351      81.59956773      79.34827189  T       0.00000000      -0.03082506       1.83487981      -0.07087042      -0.32481647      -0.09050994       1.29678810       0.34850165
O       66.87989391      77.42653976      79.66197706  T       0.00000000       0.52469992      -1.25663246       0.64187012       0.52644384      -0.68766207      -0.12940311       0.14392012
O       69.16916650      79.86142516      75.38700718  T       0.00000000      -0.50446914      -0.18865668      -0.48186415      -0.20803007      -0.71840453      -0.19729030       0.26496556
O       67.09358642      79.51261861      77.20260764  T       0.00000000       0.07640703       0.83293950      -0.55516968      -0.40889978       0.68817449      -0.26572669       0.17745164
O       75.37266856      79.38028360      81.45847760  T       0.00000000       0.46882796       0.54151004       1.32362689      -0.37231517       1.24489224      -0.33738783       0.27334160
O       71.24678127      77.46187090      75.44503190  F       0.00000000       0.00000000       0.00000000       0.00000000      -0.00825197       0.25404358       0.08059129       0.33240962
O       68.69466304      75.39426561      79.59459642  T       0.00000000      -0.64872638      -0.05422199       0.81640132       0.01041713       0.12523220      -0.24099427       0.23259434
O       73.26362127      77.46187090      77.46187090  F       0.00000000       0.00000000       0.00000000       0.00000000      -1.12282002      -1.04820073      -1.17480063       0.31000614
O       71.17193963      80.00601282      77.61057189  T       0.00000000       0.23545025      -0.98260808       0.03333705      -0.08963960      -0.91104776      -0.40408373       0.21685362
O       71.36587854      79.66073951      81.75261019  T       0.00000000       0.25458688       0.98328317       0.03609136       0.06877714      -0.46247303       0.27065599       0.25085241
O       74.91095683      78.14152049      83.92772786  T       0.00000000      -1.39158760       0.76599590       0.17475272      -0.18159205      -0.24489978      -0.01016951       0.14103714
O       75.26071719      83.93601937      77.28352853  T       0.00000000       0.74700014      -0.39893431       0.98908933      -0.08160186      -0.06728017       1.31150007       0.18946415
O       71.33811638      81.66875686      79.75164727  T       0.00000000       1.47394774       0.20356569       1.08569239       0.90604120       0.08873557       1.25898564       0.19865513
O       71.14342005      77.47678677      79.63197011  T       0.00000000      -1.36210347      -0.18831378      -1.27415983       0.08881834       0.55453390      -0.39647567       0.33402252
O       73.37372693      77.69737466      81.97224911  T       0.00000000      -1.11769228       0.89382115      -0.24324696      -0.62488258      -0.47364217      -0.73868084       0.23944408
O       69.03857249      81.77455131      77.06141917  T       0.00000000      -0.08979915       0.82880531      -0.69654311      -0.25386471      -0.07898062       0.93500489       0.07128397
O       69.38192642      79.47186146      79.36358631  T       0.00000000       0.32381196       1.39711623      -0.47331725      -0.91606247      -0.02604521       0.47380170       0.32124501
O       73.22985730      79.77701937      79.68009215  T       0.00000000       0.54567108       0.25343006      -0.93952105      -0.07084788      -0.66939783       0.63905692       0.33533689
O       73.26362127      75.44503190      75.44503190  F       0.00000000       0.00000000       0.00000000       0.00000000      -0.25849527       0.21580946       0.19818440       0.30207762
O       73.34567649      81.92522661      77.62790392  T       0.00000000      -0.61614215       0.89212882      -1.01788417       0.43425250       0.62065536       0.59716249       0.25410730
O       68.88206747      77.37531855      81.57713399  T       0.00000000       2.13851124      -0.42324847      -0.29405351       0.38093901       0.06074308       0.48944348       0.16636063
Fe      84.12885357      73.18782098      77.32037818  T      -5.00000000       1.36972685       0.32928392      -2.92621927      -0.10261860      -0.22822109      -0.07552940       3.97290659
Fe      84.03998282      71.21909473      75.07423221  T      -5.00000000       1.35341385       2.00226819      -0.10377196      -0.47100300       0.78051990       1.35588682       3.86712742
O       83.98516550      71.28055852      77.05244789  T       0.00000000      -0.28055125       0.87012756       0.17002180       0.11338207      -0.44740218       0.56533325       0.08044274
O       83.96875303      73.24633164      75.40724224  T       0.00000000      -0.37146029      -0.50555420       0.80109885       0.27173805      -0.49178603      -0.20860679       0.27182883
Fe      76.39186742      67.78605770      76.56642811  T       5.00000000      -1.50452903      -2.34521703       0.88085981       0.20916876      -0.42428315       0.05966307       4.28786135
Fe      78.56533483      74.49113554      78.51057968  T       5.00000000      -0.60314275       0.25304326      -0.24563396      -0.06532887      -0.51964331       0.51890683       4.30792141
Fe      76.43837716      72.08244639      80.55735862  T       5.00000000      -0.91170361      -2.67071244      -2.54365017      -0.25817221       0.47720730       1.07652402       4.33434868
Fe      82.84922787      70.18626088      78.24205184  T       5.00000000      -1.02378136      -1.69373971       1.86604520      -0.43321431       0.60692257      -0.39842790       3.70537686
Fe      80.71766590      72.28288846      76.32840179  T       5.00000000      -1.40194935       0.12696762      -4.00156765       0.75036258      -1.08347929       0.17463048       4.35934877
Fe      78.36684265      70.25718332      82.89675429  T       5.00000000      -2.38794494      -0.04415894      -1.26710136      -0.11778030       0.41432232      -0.46689916       3.50547433
Fe      79.93565641      71.01387353      79.62157130  T      -5.00000000      -2.33957887       1.28385500      -0.44828926      -0.63037759       0.01823892       0.57929397       4.38994980
Fe      77.50301390      73.30476427      75.40388890  F      -5.00000000       0.00000000       0.00000000       0.00000000       0.31950998      -0.42272937       0.07998237       4.36255550
Fe      81.75302646      69.03436574      75.40241609  T      -5.00000000      -1.73795784      -1.77599077      -0.46707756      -0.28475612       0.21242176      -1.48508120       3.91399646
Fe      75.43501551      68.91761352      81.59411713  T      -5.00000000      -0.32349859      -2.86467561      -1.05189919       0.03091155       0.19393669       0.05435660       3.57693529
Fe      75.40388890      73.30476427      77.50301390  F      -5.00000000       0.00000000       0.00000000       0.00000000       0.37050122      -0.65702057       0.06099622       4.35464621
Fe      79.57407360      66.79323280      75.37702805  T      -5.00000000       0.33267280       0.27885062      -0.90082873      -0.65240473       0.27291030      -1.82412624       4.00608683
Fe      77.59486089      68.82205039      79.65647123  T      -5.00000000      -1.55129090      -1.03184932       0.02147553       0.10144293      -0.39282066      -0.09755278       4.38096571
Fe      81.54939391      73.21383905      79.50479062  T      -5.00000000       0.78370967      -0.49631190       1.71468409       0.98650992       0.44721046       0.73756105       4.32851696
Fe      77.77998468      70.94312799      77.59988769  T      -5.00000000      -0.83019014      -0.56032149      -0.48332574      -0.86626142       0.93324715      -0.76186144       4.18285418
Fe      75.40388890      71.20563927      75.40388890  F      -5.00000000       0.00000000       0.00000000       0.00000000       0.17415321      -0.12081772       0.62435138       4.35629511
Fe      79.74586608      68.81317452      77.56274293  T      -5.00000000       1.78104013      -3.63840844       2.22078093       0.22028232       0.27201483      -0.50633311       4.41467142
Fe      79.37694965      73.17798422      81.77651670  T      -5.00000000       1.15857279       1.67652517      -1.46788934       1.28920448       0.22743550      -0.78459698       4.25458765
Fe      75.44398713      66.67647099      79.47613748  T      -5.00000000       1.30819270      -1.85949211       1.65805974       0.12501648      -0.31899861      -0.68449098       3.83523369
O       77.70987765      68.93536688      77.46482027  T       0.00000000      -0.17790913       0.46844319      -0.89660762      -0.40603399      -0.10026348       0.65915912       0.33229816
O       81.37549420      73.26213179      81.49478044  T       0.00000000      -0.59315033       0.13303528       0.23210708      -0.51591605       0.44184083      -0.78720844       0.11388835
O       79.33258379      75.15422170      81.52286411  T       0.00000000       0.25822160       0.29540285      -0.73118930       1.13049281       0.37977833       0.08030229       0.29543549
O       80.05193805      66.97154580      77.09064160  T       0.00000000       0.49095633       0.03762110      -0.44144951       0.46795118      -0.52470958       2.28432107       0.12671414
O       75.44497338      68.75853586      79.37657090  T       0.00000000       0.26818840      -0.90097204      -0.72037772       1.00962055      -0.60097599       1.02828395       0.19255963
O       77.46187090      71.24678127      75.44503190  F       0.00000000       0.00000000       0.00000000       0.00000000      -0.15005565       0.12741798       0.09552670       0.30742192
O       75.44503190      71.24678127      77.46187090  F       0.00000000       0.00000000       0.00000000       0.00000000      -0.01659581      -0.08757097      -0.16499949       0.34427309
O       79.59570540      68.98692303      75.45842303  T       0.00000000       0.34723867       1.04587916       0.30474329       1.03789282      -0.64401054       0.29617345       0.28135067
O       77.43701548      66.81927674      79.27440825  T       0.00000000       0.03362449      -0.52324275      -0.14270999      -0.45557320       0.64360666       0.62637907       0.14109701
O       81.65911103      75.32830138      79.36279474  T       0.00000000       0.25714235       1.54029316      -0.64722305       0.67109567      -1.56504011      -0.81444210       0.34485790
O       77.45259629      73.30966860      81.98605330  T       0.00000000       0.63591989      -0.38000075      -1.06131529      -0.51483250      -0.09738684      -0.48963577       0.25253177
O       81.70351014      69.03795055      77.24804862  T       0.00000000       0.22088751      -0.03224167      -0.42171372       0.32460770      -0.09539357       0.86468178       0.14490458
O       79.81924038      70.97884403      77.44799695  T       0.00000000       0.38013748      -0.50329777      -0.17028983      -0.39984921       0.29690564       0.39952731       0.32014132
O       79.63879678      71.25872382      81.71869376  T       0.00000000      -0.20011804      -1.19347879       0.67519345      -0.59134734      -0.12610784      -0.35359117       0.17360805
O       75.44503190      73.26362127      75.44503190  F       0.00000000       0.00000000       0.00000000       0.00000000       0.28621373      -0.29254681       0.31395808       0.30942628
O       84.01979156      75.05044089      77.69804659  T       0.00000000      -0.68428708      -0.45484667      -0.02753693      -0.36940542       0.30382541      -0.23598158       0.15203303
O       79.69453557      73.12301432      79.48575929  T       0.00000000      -0.31822920       0.10022848      -0.26812345      -1.62297654      -0.23824513       0.13911456       0.32865793
O       79.53259387      69.16144424      79.48236928  T       0.00000000      -0.85688183      -0.44029849      -1.04624079      -0.03665182      -0.49029064      -0.06945874       0.34425735
O       77.46187090      73.26362127      77.46187090  F       0.00000000       0.00000000       0.00000000       0.00000000      -0.00187012       0.06851983      -0.06203049       0.32307065
O       77.47384187      70.96241458      79.56985088  T       0.00000000      -0.52245433      -1.14877668      -0.25922656       0.70627177      -0.44869691      -0.24470355       0.25233734
O       81.80523916      71.25182977      79.52427250  T       0.00000000      -0.99055533       0.12841468      -0.25948713       0.22233863       0.07463755       0.01568800       0.28576726
O       77.67525213      75.21527137      84.01269902  T       0.00000000       0.02662999       1.13925196       0.00253713      -0.37019157      -0.34020686      -0.42651924       0.16074359
O       81.82055961      73.27242280      77.56872590  T       0.00000000       0.23737343      -0.13252026       0.15338538       0.66844362       0.48280925      -0.38208443       0.27485225
O       77.43559119      68.97503507      81.61544957  T       0.00000000       0.09248918      -0.55082888       0.98556707      -0.34986293      -0.01964752      -0.20084731       0.12725213
Fe      68.50648417      68.51785584      75.26644414  T       5.00000000      -0.01192495      -1.12694983       0.19655279      -0.50014931      -0.86940765       0.26004720       3.94317102
Fe      74.22088483      74.36791619      82.88047056  T       5.00000000       0.01423994       0.50136219       1.74003762      -0.05546963       0.29926890      -0.60875678       4.32225895
Fe      72.60438763      67.89840327      80.14496632  T       5.00000000      -2.04787715       0.49117106       1.69326282      -1.36157930       1.18328190       0.45832294       3.92787218
Fe      69.92287146      74.29949936      78.52550549  T       5.00000000       0.36173349       1.62199607       1.71357195       0.93443024       0.38865823       0.85582691       4.09860563
Fe      67.56197945      72.25511692      80.61211809  T       5.00000000      -1.06584755       0.96945176      -0.52472892       1.12290084      -0.70543504       0.04642200       3.36277819
Fe      74.35410649      69.92001414      78.51325709  T       5.00000000       0.34530957      -0.23716954      -0.14780531      -0.47488171       1.46507561      -0.50994599       4.37655783
Fe      72.25520127      72.25520127      76.45345090  F       5.00000000       0.00000000       0.00000000       0.00000000      -0.35713190      -0.46021423       0.29310164       4.36720657
Fe      71.07072757      71.13637183      79.56111495  T      -5.00000000       1.86536944      -1.47646752       0.53195053      -0.10923010      -0.16884094       0.65949464       4.40019369
Fe      69.06199990      73.26302602      75.45129610  T      -5.00000000      -0.68440837       2.01799268      -3.11739882      -0.39800763       0.10783270      -0.98163909       4.34498119
Fe      73.29876942      68.89212293      75.49653888  T      -5.00000000      -2.39107935       2.92686734      -3.73650934      -0.74585330      -0.36616576       0.54686946       4.39128733
Fe      73.25070644      66.60571420      77.20516337  T      -5.00000000       0.76777266       1.49768633       0.88998420       0.59716034      -0.00374278       0.59714508       3.78608418
Fe      66.44327010      73.32901673      77.45598137  T      -5.00000000      -1.74032777       2.43004174      -0.87977279       0.30700588       0.98653722      -0.63126677       3.77500010