890
Lattice="150.0 0.0 0.0 0.0 150.0 0.0 0.0 0.0 150.0" Properties=species:S:1:pos:R:3:move_mask:L:1:initial_magmoms:R:1:momenta:R:3:forces:R:3:magmoms:R:1 XYZ=T energy=-4548.94287109375 stress="-3.7966669879097026e-06 3.7154143228690373e-07 1.534471891773137e-07 3.7157735732762376e-07 -2.977578333229758e-06 -3.3390821840839635e-07 1.5347004023169575e-07 -3.3389963505214837e-07 -2.972499714815058e-06" free_energy=-4548.94287109375 pbc="F F F"
Fe      73.45415055      77.25562658      84.06788737  T      -5.00000000      -0.62020497      -0.13254341       1.09814960      -0.02738989       0.00639484      -0.00866936       3.89396048
Fe      71.39518057      75.29017869      83.95482044  T      -5.00000000      -0.87713214      -2.16153280       0.63230663       0.00494693       0.00539465      -0.01318654       3.84955597
O       71.48515035      77.24447264      84.03105910  T       0.00000000      -0.05034963      -0.37771542      -0.86896786      -0.00079316      -0.00464998      -0.00134697       0.06646419
O       73.39735968      75.28721965      83.98636678  T       0.00000000      -0.19322117      -0.13692816      -0.78918748       0.04225333      -0.05249110      -0.03131378       0.24892873
Fe      77.48563928      73.32074792      84.02921072  T      -5.00000000       2.03633494      -0.15166334       0.34175381      -0.00403981      -0.01992069      -0.00899870       3.80491066
Fe      75.44043535      71.17725650      83.93747276  T      -5.00000000      -0.84552328      -2.08391336      -0.46967560       0.01293373      -0.03265911      -0.02535868       3.81650114
O       77.42888002      71.32891454      84.01511713  T       0.00000000      -0.17652538       0.22308802      -0.66891769       0.02893187      -0.01031713      -0.02075414       0.06053425
O       75.45093394      73.21182883      84.00675677  T       0.00000000       0.04112330       0.42880492      -0.11920221      -0.01020794       0.06086005      -0.02143881       0.17150870
Fe      73.21239175      83.92390435      77.49842356  T      -5.00000000      -0.10193768       1.30769650       0.29502157      -0.02866924       0.00244745       0.01379415       3.80379868
Fe      71.25565696      83.92313128      75.45800105  T      -5.00000000       1.86450187       0.53625428      -1.65758844      -0.02420926      -0.00842327       0.07307196       3.85101223
O       71.18343629      83.85654987      77.46569437  T       0.00000000      -0.63672356      -0.06084827       0.30513173       0.00370789      -0.00304793      -0.01885432       0.06157649
O       73.22969554      83.94378607      75.49994052  T       0.00000000       0.51891174      -0.05426145      -0.16875093       0.07008374      -0.04156581      -0.04652900       0.25595656
Rh      76.45345090      76.45345090      76.45345090  F       5.00000000       0.00000000       0.00000000       0.00000000       0.09075572       0.19532704       0.22031356       4.38931322
Rh      80.91188120      76.58984429      80.55649513  T       5.00000000      -0.49039313      -1.34916087      -0.93248079       0.00129727       0.00977525       0.00300004       4.30626249
Rh      76.84621825      80.70695246      80.85233947  T       5.00000000      -1.08254091       0.68935735      -2.12893268      -0.03415520      -0.00349700      -0.00943284       4.23907661
Rh      80.82683432      80.71459844      76.58283177  T       5.00000000       0.69205109      -0.19467163      -0.21511780       0.02090168       0.01497006       0.01176703       4.34501982
Fe      80.05333104      79.61804399      79.59183636  T      -5.00000000      -1.01061867      -0.76802128      -0.02228792      -0.01806534      -0.01709238       0.05360665       4.29009771
Fe      77.61941534      81.92114464      75.56257908  T      -5.00000000       0.67722971      -0.60224075       0.46180264       0.01718051       0.04138096      -0.02713330       4.42186594
Fe      81.97841968      77.57658818      75.48919083  T      -5.00000000       1.88056477      -1.46440798       1.71609672       0.03100428      -0.01006490      -0.00712775       4.42449236
Fe      81.94845565      75.43182073      77.47103305  T      -5.00000000      -1.51729218      -0.31717799      -0.28662524      -0.00410291       0.01922449      -0.01085436       4.42077971
Fe      77.71033560      75.45086318      81.86913559  T      -5.00000000       0.69345116       0.90080192      -1.16938622       0.01478707       0.02736476      -0.03920773       4.41999483
Fe      75.55133362      77.50653076      81.89375755  T      -5.00000000       0.22169934      -0.18808510      -0.78886027      -0.03454482       0.01347823       0.04973054       4.40636778
Fe      75.41728482      81.85016325      77.63205274  T      -5.00000000      -1.66200171      -0.78738658       0.52303371       0.00540955       0.00414035       0.03280476       4.39659834
Fe      79.60213890      75.40388890      75.40388890  F      -5.00000000       0.00000000       0.00000000       0.00000000       0.47115201       0.06969826      -0.04039782       4.41820526
Fe      77.53120589      77.45281898      79.67398018  T      -5.00000000      -0.46795626      -1.31516524      -0.63874954      -0.01478021      -0.01313134      -0.02963257       4.43587112
Fe      77.51560023      79.66050005      77.50188087  T      -5.00000000       1.14719875      -1.55791650      -0.68932142      -0.01804549       0.01112169      -0.01028749       4.43095064
Fe      75.40388890      79.60213890      75.40388890  F      -5.00000000       0.00000000       0.00000000       0.00000000       0.06146187       0.55010068       0.31084496       4.41349459
Fe      79.67605667      77.49267796      77.47597823  T      -5.00000000       0.02407270       0.93165676      -0.35198973       0.02251221      -0.02137064       0.01741129       4.43334961
Fe      75.40388890      75.40388890      79.60213890  F      -5.00000000       0.00000000       0.00000000       0.00000000      -0.06878352      -0.08215180       0.52250648       4.42268372
O       77.54415690      77.54415690      77.54415690  F       0.00000000       0.00000000       0.00000000       0.00000000       0.13485816      -0.02415216      -0.04274863       0.31642491
O       79.67320617      75.43125622      77.38712137  T       0.00000000      -0.32328988      -0.58114257       0.84417541      -0.00815099       0.01305661      -0.01437467       0.32174104
O       75.45631347      77.34634974      79.74552685  T       0.00000000      -0.54497625       0.20867972      -0.22653215      -0.00813216      -0.01976466       0.00195515       0.34630480
O       77.41201762      79.69412067      75.46422427  T       0.00000000       0.23763145      -0.70016666      -0.18342405       0.01851356      -0.01024806       0.00184658       0.32382616
O       75.43523222      79.72293273      77.38433936  T       0.00000000      -0.02946187      -0.20291465       0.48753532       0.01866210       0.00219893      -0.00243139       0.35520461
O       79.64970162      77.40901987      75.43518313  T       0.00000000       0.46177226      -0.16200320      -0.10058448       0.00695336       0.00804698       0.00700779       0.32142970
O       77.43297834      75.40131629      79.65201535  T       0.00000000       0.63308750      -0.53538711      -0.54394838       0.00726372      -0.00062801       0.00343019       0.32792735
O       76.49944937      82.10017772      82.09546015  T       0.00000000      -0.03315335       0.62792665      -0.34438145       0.00585887       0.00224487       0.01446837       0.05525713
O       81.64438938      77.37310963      77.39746606  T       0.00000000       0.26990058      -0.11040644      -0.41397800      -0.02518748       0.02285120      -0.00567776       0.31811538
O       79.47730098      79.47741322      77.57066270  T       0.00000000       0.01855916      -0.30312701      -0.48288514      -0.03552186      -0.02457029      -0.01012069       0.29492596
O       81.38996350      78.59475162      80.53540817  T       0.00000000       0.45172123       0.14402455      -0.91394685      -0.05301058      -0.04229331      -0.03656930       0.18077907
O       75.47949553      81.69295048      75.51718634  T       0.00000000      -0.62798483      -0.51623569       0.22839727      -0.01399463      -0.00359309       0.01593986       0.31667048
O       75.54156107      75.38179030      81.70222101  T       0.00000000      -0.81859902      -0.36382395       0.14523062      -0.00957978       0.00561929       0.01650923       0.31832376
O       78.85322259      80.54712827      80.81413755  T       0.00000000       0.08904597      -0.05044072      -1.51412218      -0.00990963      -0.03041747      -0.03446752       0.17543453
O       79.46284476      77.57149724      79.45554046  T       0.00000000      -0.40938347      -0.37979154       0.21988423       0.02659497       0.00141054      -0.02720794       0.27590889
O       82.40639007      76.35422819      81.74012452  T       0.00000000       0.53373009       0.65091775       0.34939707      -0.00390920      -0.01440480      -0.03484092       0.06717291
O       77.41748476      81.67735517      77.51587005  T       0.00000000       0.33135667       0.37066850      -0.22713905      -0.02936401      -0.01825311       0.01038842       0.31987163
O       77.09829867      79.38271321      79.40514216  T       0.00000000      -0.07596919       1.10338627      -0.11881107       0.03839564       0.02975962       0.02291805       0.26374158
O       81.16546696      80.90644442      78.59800939  T       0.00000000       0.37291916      -0.46276482       0.45417747       0.01506473       0.00952201       0.00808534       0.14682780
O       81.66509526      75.44123571      75.40260501  T       0.00000000       0.13350833       0.54739608      -0.35038311       0.00346865      -0.01752882      -0.00660130       0.31250128
O       82.29113249      82.02011622      76.31242937  T       0.00000000       1.12931178       0.15452881       0.17029779      -0.05425894      -0.06427847      -0.00508989       0.06897703
O       77.47394212      77.37275804      81.62734524  T       0.00000000      -0.21542299       0.13454694       0.39192300       0.01956311       0.00063277       0.00558189       0.33499146
Rh      67.97832903      76.53137168      76.52139202  T       5.00000000      -1.01495593       1.09212639       0.09732666       0.01223489       0.01929139      -0.03007939       4.36533403
Rh      72.29682846      76.46302149      80.75851766  T       5.00000000       2.46116590      -0.29359850       0.50986435       0.00806880       0.00319193       0.01210172       4.35742569
Rh      70.08594515      82.67682997      78.64328999  T       5.00000000      -0.16580379      -2.10368068      -0.88228741       0.01363104      -0.00555964      -0.00788876       3.65340590
Rh      75.03877056      79.21626112      79.25960148  T       5.00000000      -1.13175029      -0.59668771      -1.86848360      -0.04178686       0.04484499       0.00209719       4.37566853
Rh      72.24845520      80.68642748      76.57954267  T       5.00000000      -0.28268953      -1.19320143       1.09811775       0.01496793       0.01305075      -0.01831130       4.37551832
Rh      70.32456796      78.18644292      82.81506795  T       5.00000000      -2.05884347      -0.36110554      -0.53703710       0.00171917      -0.01099958       0.00957275       3.76467609
Fe      71.09576278      79.68274665      79.82510201  T      -5.00000000      -0.91036994      -0.32562821      -0.20802973       0.05323491       0.01876331      -0.00690592       4.43643713
Fe      69.08896359      81.70293075      75.49934993  T      -5.00000000       0.07564650       1.19125323       1.79768496       0.01335137       0.00057670      -0.04431936       3.84793258
Fe      73.30476427      77.50301390      75.40388890  F      -5.00000000       0.00000000       0.00000000       0.00000000      -0.10497516       0.07953206       0.59204459       4.32385397
Fe      73.30476427      75.40388890      77.50301390  F      -5.00000000       0.00000000       0.00000000       0.00000000      -0.04355597       0.37038499       0.30255648       4.32590199
Fe      69.10568455      75.32035996      81.76895893  T      -5.00000000      -0.91441832      -1.46574620      -0.46661004       0.00316940       0.01253190       0.00362901       3.79926300
Fe      71.20563927      75.40388890      75.40388890  F      -5.00000000       0.00000000       0.00000000       0.00000000      -0.04703978       0.21723448       0.19759832       4.36094522
Fe      68.98949958      77.53130544      79.73457262  T      -5.00000000       1.93972234       0.42653226      -1.16867057       0.00992692      -0.02324925       0.00205973       4.43645811
Fe      73.29517005      81.67163642      79.80756276  T      -5.00000000       0.44936541      -0.57745941      -0.34331811       0.00153089      -0.02864659       0.01456279       4.26277685
Fe      73.33093792      79.55478099      81.76962795  T      -5.00000000       0.72483987       0.75593076      -1.12185371       0.00701129       0.01133321      -0.00357944       4.27892876
Fe      68.98350909      79.63387444      77.63493095  T      -5.00000000      -1.33438887      -0.36657772      -0.75396545       0.01420042       0.01383764      -0.00659394       4.42997313
Fe      66.89469707      79.34093255      75.47722417  T      -5.00000000      -2.56101582      -0.79727464       0.71181399      -0.00868544      -0.04905941      -0.03379822       3.98558617
Fe      71.29573078      77.55349954      77.61770539  T      -5.00000000      -0.62536079       0.31153759       0.46057398      -0.01973392      -0.01194557      -0.00094740       4.38206863
Fe      66.96541503      75.38648406      79.42718361  T      -5.00000000      -2.39112277      -0.87459924      -0.82509496      -0.00149405      -0.05552852      -0.02480300       4.01250505
O       69.23723125      77.52219284      77.63069363  T       0.00000000      -0.41518240      -0.44077192      -0.53327548      -0.00087609       0.03658685       0.02293634       0.31301153
O       73.31694017      81.49176768      81.79690350  T       0.00000000       0.20436759      -0.02121178       0.56742726       0.00810399       0.02659571       0.00784475       0.13319539
O       71.24678127      75.44503190      77.46187090  F       0.00000000       0.00000000       0.00000000       0.00000000       0.20955479       0.02340028      -0.07652593       0.34153599
O       75.26859775      81.34839143      79.57223407  T       0.00000000       0.79753683      -1.13893519       0.17669126       0.02078104      -0.00939089      -0.03070424       0.32180002
O       67.07478643      77.26132442      79.60201596  T       0.00000000      -0.31020006      -0.16159574      -0.08397198       0.04540703       0.00207897      -0.03028205       0.12125632
O       68.98573572      79.59319960      75.52527029  T       0.00000000      -0.23513448      -0.45737129      -0.12908778       0.00716060       0.00161403       0.02840120       0.28006095
O       67.10953785      79.19996878      77.36033501  T       0.00000000      -0.01405309       0.58684232       0.08219591       0.02035925       0.06275733       0.02070941       0.11815864
O       75.35661694      79.44782911      81.46621211  T       0.00000000       0.88582618       0.21958606      -0.32649254       0.02800864      -0.01686063      -0.01091890       0.31778264
O       71.24678127      77.46187090      75.44503190  F       0.00000000       0.00000000       0.00000000       0.00000000       0.19246346      -0.07505485       0.15654609       0.33905378
O       69.00955474      75.41726307      79.66170461  T       0.00000000       0.27799276      -0.23835419       0.15279962      -0.00831608       0.02334794       0.01267219       0.27881411
O       73.26362127      77.46187090      77.46187090  F       0.00000000       0.00000000       0.00000000       0.00000000      -0.47018161      -0.63264906      -0.62335092       0.34209013
O       71.11482998      79.55779247      77.64141227  T       0.00000000       0.63483462      -0.00309704      -0.18022511      -0.03872232      -0.00611475       0.00339204       0.31786653
O       71.35833372      79.43732911      81.75745436  T       0.00000000      -0.54639735       0.32434695       0.02871180      -0.01500344       0.00566962      -0.00066769       0.25592935
O       75.36171457      77.56775784      83.84413295  T       0.00000000       0.21692250       0.04356790       0.01495213       0.01252772       0.02103525      -0.02521719       0.11822745
O       75.11781296      83.76366583      77.73293927  T       0.00000000       0.50111376      -0.52561408       0.19792415      -0.00304956      -0.04032975      -0.01629579       0.12892339
O       71.35170930      81.65158518      79.70612545  T       0.00000000      -0.29875628       0.15503689      -0.58951516      -0.01554367       0.01124793      -0.01457688       0.26047939
O       71.13280239      77.52203813      79.63162558  T       0.00000000      -0.12415932       0.23261886      -0.84511743      -0.00757528       0.00924473       0.00125226       0.33215475
O       73.45131169      77.53854775      81.92334849  T       0.00000000      -0.08051006      -0.25620363       0.02024312       0.01345931      -0.00246174       0.01159182       0.27739221
O       68.99493848      81.60419178      77.44478358  T       0.00000000      -0.68441718       0.01101009      -0.43229790      -0.01787667      -0.02993137       0.00780209       0.17118250
O       69.17585212      79.48473470      79.59790321  T       0.00000000      -1.02255659      -0.06829591       0.88775102      -0.02516637       0.01555362      -0.01576164       0.34607720
O       73.16720585      79.62157283      79.75971169  T       0.00000000      -0.18022179      -0.33491056       0.02078318       0.01320343      -0.00080953      -0.01627195       0.38797414
O       73.26362127      75.44503190      75.44503190  F       0.00000000       0.00000000       0.00000000       0.00000000      -0.31942734       0.27422830       0.26108462       0.29667515
O       73.32202554      81.78516151      77.71575042  T       0.00000000      -0.08623327      -0.34085764      -0.21261933       0.03388216       0.02361205       0.01619262       0.28488427
O       69.05589367      77.27115581      81.68679189  T       0.00000000      -0.31431877      -1.40531948      -0.46832745       0.00882093      -0.00175318       0.01190670       0.13371198
Fe      83.99374464      73.20072167      77.13766340  T      -5.00000000       0.03673265      -0.11337665       0.07757116      -0.01219434       0.01292835       0.01091025       3.93723488
Fe      83.90786494      71.05417597      75.20086284  T      -5.00000000       1.77591970      -0.28598822      -0.52964608       0.00170762       0.00147894       0.00568900       3.72210526
O       83.99547193      71.24328374      77.18120372  T       0.00000000      -0.40228586      -1.17443420       0.15623270      -0.00430534      -0.00959393      -0.00271985       0.07946931
O       83.93796968      73.08056561      75.17826037  T       0.00000000      -0.43197011       0.39840703       0.00368566      -0.00586794       0.01193915      -0.01649602       0.24954519
Rh      76.43090419      67.91142101      76.44134902  T       5.00000000      -0.53999395       0.34283999      -2.03567323       0.00719852       0.03621899      -0.01725649       4.36386633
Rh      78.61473225      74.37037173      78.56361178  T       5.00000000       0.97973665       1.38079292       0.07826619      -0.02826113       0.01657087       0.01199944       4.36902189
Rh      76.53346679      72.25775220      80.70954834  T       5.00000000       2.23042438       0.60874956       0.95546349      -0.02872154       0.00031379      -0.01841223       4.34380436
Rh      82.76373910      70.21377735      78.23139714  T       5.00000000       0.34736616      -0.30080388      -0.07076158      -0.00353909      -0.00683050      -0.00939650       3.77429867
Rh      80.72272315      72.16620926      76.44051792  T       5.00000000      -1.21918992       1.44519435       1.26383455       0.01461990       0.02447463       0.00462699       4.35172224
Rh      78.47753210      70.32426592      82.68395374  T       5.00000000      -0.92583294      -0.62304541       0.13736682      -0.01611534       0.01355277       0.02107313       3.70284557
Fe      79.77225239      71.04382086      79.65157295  T      -5.00000000      -0.41345589       1.69930997       0.33735003       0.00931241       0.00121846      -0.01308817       4.42757559
Fe      77.50301390      73.30476427      75.40388890  F      -5.00000000       0.00000000       0.00000000       0.00000000       0.04172176      -0.11020085       0.04813682       4.33213282
Fe      81.58086679      69.01076075      75.28891964  T      -5.00000000      -1.16654558      -1.36124290      -0.42729628      -0.00472240      -0.01204926       0.02738953       3.88290334
Fe      75.48796912      69.01139638      81.72119308  T      -5.00000000       1.34960377      -0.06952744       0.95584354       0.01031011      -0.00135489       0.02049677       3.79206085
Fe      75.40388890      73.30476427      77.50301390  F      -5.00000000       0.00000000       0.00000000       0.00000000      -0.10143385      -0.13249040       0.22937396       4.34400082
Fe      79.35105489      66.74246831      75.39622334  T      -5.00000000      -0.24639703       1.26444098       1.96436031       0.00157816      -0.00174221       0.01858989       3.80157661
Fe      77.61091611      68.87184082      79.66725405  T      -5.00000000      -1.39126330       0.21597455      -2.73462792      -0.01042663       0.02714261       0.00230102       4.42430735
Fe      81.74381893      73.30671639      79.55807934  T      -5.00000000      -0.29631915       0.07645528       0.00895646       0.00457621       0.00463086       0.00435627       4.28850031
Fe      77.53954285      71.11111547      77.54887272  T      -5.00000000       0.25419631       0.49489622      -0.48230616       0.00667381       0.01659282       0.00871056       4.38720751
Fe      75.40388890      71.20563927      75.40388890  F      -5.00000000       0.00000000       0.00000000       0.00000000      -0.11803332      -0.07504812      -0.10345569       4.35464382
Fe      79.67108035      68.87920224      77.51671672  T      -5.00000000       0.60379815      -1.60969294       0.34648215       0.01079425      -0.00777709      -0.01232796       4.43322945
Fe      79.76311680      73.41017606      81.57631067  T      -5.00000000       1.09189650       0.47659559      -1.07787425       0.00463875       0.01300934       0.00517237       4.27975225
Fe      75.46790603      66.76072353      79.43644087  T      -5.00000000      -0.29664153      -0.64025066      -0.48362794       0.00910759       0.02389756      -0.00048537       3.75491428
O       77.54141856      69.09652713      77.54507398  T       0.00000000      -0.57403685      -0.22162836       0.19597885       0.00457162       0.00540310       0.02868347       0.34005603
O       81.67073738      73.31834637      81.47987131  T       0.00000000       0.20436515       0.43835863      -0.06511684      -0.02450269       0.00134331      -0.03477496       0.16558474
O       79.64097966      75.36287595      81.48144289  T       0.00000000       0.35950210       0.04370918      -0.39757043      -0.01303037      -0.03516275       0.00489360       0.32558030
O       79.61230202      66.96273199      77.29898804  T       0.00000000      -0.44774790       0.08727264      -0.69177419      -0.02163525      -0.01251391      -0.02897306       0.13420537
O       75.54562518      68.93348808      79.62927459  T       0.00000000       0.44939584       0.17115643      -0.94236516      -0.00883567      -0.01696041      -0.01252288       0.26353377
O       77.46187090      71.24678127      75.44503190  F       0.00000000       0.00000000       0.00000000       0.00000000      -0.17840981       0.06168211       0.26374182       0.33864009
O       75.44503190      71.24678127      77.46187090  F       0.00000000       0.00000000       0.00000000       0.00000000       0.26683730       0.01324040      -0.06495196       0.34128159
O       79.50904499      68.92216361      75.47407534  T       0.00000000      -0.10673780       0.07686296       0.46099080       0.00317943       0.02025360      -0.01685294       0.27202037
O       77.38814481      66.96464339      79.52639620  T       0.00000000      -0.37150753      -0.26760971      -0.62700147       0.01558064      -0.01472771      -0.00710933       0.12790957
O       81.69089258      75.25596788      79.37220249  T       0.00000000       0.77806168       0.13931378      -0.43800499       0.01499472      -0.01348266       0.01216671       0.32224262
O       77.69153501      73.34501959      81.83688553  T       0.00000000       0.44857775      -0.02939795      -0.35243073       0.02350216       0.01361755       0.00281096       0.27602470
O       81.62002531      69.03417836      77.24253746  T       0.00000000       0.12673044      -0.11839102       0.26105658       0.01565926      -0.00714293      -0.02745443       0.14482230
O       79.54252934      71.07265338      77.51839288  T       0.00000000      -0.14776455       0.79281698       0.52323613      -0.02616836      -0.00929102      -0.00088549       0.33946955
O       79.64437148      71.38755891      81.61176858  T       0.00000000      -0.61113202       0.80733617       0.73101264      -0.00186948       0.00668395       0.01049030       0.19353887
O       75.44503190      73.26362127      75.44503190  F       0.00000000       0.00000000       0.00000000       0.00000000       0.27372700      -0.29453892       0.29371360       0.29694244
O       83.85797652      75.11578586      77.31524256  T       0.00000000       0.12959239      -0.23464524      -0.06297319      -0.00775510      -0.01453267      -0.00352833       0.14318845
O       79.69128603      73.14574286      79.55577501  T       0.00000000      -1.00385295      -0.08292217      -0.15065108       0.00376182      -0.02167755       0.02662569       0.36009899
O       79.53921518      69.12583075      79.46902463  T       0.00000000       0.18113164      -0.69824305      -0.22086009      -0.01097986       0.02574226       0.01259787       0.33641708
O       77.46187090      73.26362127      77.46187090  F       0.00000000       0.00000000       0.00000000       0.00000000      -0.13138127      -0.37487435      -0.13433225       0.33288136
O       77.58356037      71.09096857      79.55477787  T       0.00000000      -0.34309056       0.06670640      -0.27173558       0.02619462      -0.02921616      -0.00173074       0.33458078
O       81.70180547      71.34049407      79.41098002  T       0.00000000      -0.25083125       0.29919658      -0.34014225      -0.01096387       0.00703910       0.02419154       0.24775821
O       77.77277515      75.20049220      83.79612137  T       0.00000000      -0.13459414       0.25482154      -0.25370986      -0.01473598      -0.00709431       0.01148729       0.13026632
O       81.88612696      73.31807334      77.47437847  T       0.00000000      -0.18816461       0.77711114       0.19053050       0.01390903      -0.00433044       0.00225601       0.28476310
O       77.48755849      68.99651172      81.66842287  T       0.00000000       0.60326032      -0.28891215      -0.59286525      -0.01033159       0.03763650      -0.00716746       0.12216824
Rh      68.33687333      68.35425488      75.65656376  T       5.00000000       1.39651908      -2.87953073       1.83330449      -0.01361816       0.02539451       0.00088877       3.93852568
Rh      74.39291601      74.25731896      82.80661364  T       5.00000000       0.85806757       1.01853826       0.12588888      -0.02024525       0.02347139       0.04637492       4.37021923
Rh      72.41140678      68.03261967      80.48579059  T       5.00000000      -0.28848247       1.14088897       1.34645972      -0.00621396      -0.00126730       0.00380023       3.77793598
Rh      70.15033169      74.31572866      78.62504156  T       5.00000000      -0.49150116      -0.09516826       1.00496063      -0.00029195       0.00133139      -0.01305298       4.38020468
Rh      67.99286487      72.28771988      80.46771200  T       5.00000000      -1.13073677      -0.42974578      -0.61118965       0.00567120       0.00198077       0.03928894       3.68163800
Rh      74.38810022      70.05588893      78.62405529  T       5.00000000       0.24190213      -0.42961782       0.48124835       0.01241907       0.01333974      -0.00477461       4.36873960
Rh      72.25520127      72.25520127      76.45345090  F       5.00000000       0.00000000       0.00000000       0.00000000      -0.10067594      -0.41568273       0.44692388       4.36754560
Fe      71.15256525      71.09616744      79.70942776  T      -5.00000000       0.56642203      -0.03597185       1.05529476      -0.01093326      -0.00425365      -0.03558476       4.41883039
Fe      69.08425732      73.34455523      75.49012582  T      -5.00000000       0.48130953       0.04140197      -0.27589304       0.01149765       0.00157967       0.01708145       4.39692450
Fe      73.28830866      69.01523866      75.44425258  T      -5.00000000       1.36445744       0.56262660      -0.00664847       0.01110008      -0.01939747       0.01488931       4.40066481
Fe      73.34367303      66.85859470      77.43616112  T      -5.00000000       3.10880482       2.05574938      -1.18772479      -0.02207124       0.01596299      -0.01573530       4.19612837
Fe      66.84837685      73.37202411      77.46452774  T      -5.00000000       1.29158303      -0.53068896       1.67026972      -0.00834894       0.04480925       0.01114544       4.07618380