566
Lattice="150.0 0.0 0.0 0.0 150.0 0.0 0.0 0.0 150.0" Properties=species:S:1:pos:R:3:move_mask:L:1:initial_magmoms:R:1:forces:R:3:magmoms:R:1 XYZ=T energy=-2445.424072265625 stress="4.7491710574831814e-05 -5.107456146902223e-08 -5.094740629374428e-08 -5.109045631002118e-08 4.749174331664108e-05 -5.0897071446343034e-08 -5.102530664657934e-08 -5.0911971527511923e-08 4.749195068143308e-05" free_energy=-2445.424072265625 pbc="F F F"
Fe      76.47067262      76.47067249      76.47067244  T       5.00000000      -0.10375607      -0.10376757      -0.10375212       4.36923361
Fe      77.46760114      81.71685765      75.26268960  T      -5.00000000      -0.08421826      -0.13445595      -0.90849864       3.82236171
Fe      81.71685740      77.46760110      75.26268983  T      -5.00000000      -0.13442034      -0.08418784      -0.90845793       3.82235909
Fe      81.71685748      75.26268946      77.46760117  T      -5.00000000      -0.13442513      -0.90846258      -0.08419785       3.82235980
Fe      77.46760130      75.26268964      81.71685686  T      -5.00000000      -0.08420175      -0.90846467      -0.13443027       3.82236028
Fe      75.26268990      77.46760137      81.71685746  T      -5.00000000      -0.90847278      -0.08420575      -0.13443069       3.82235956
Fe      75.26268985      81.71685734      77.46760143  T      -5.00000000      -0.90850043      -0.13446084      -0.08422531       3.82236171
Fe      79.69986960      75.41879436      75.41879483  T      -5.00000000       0.06162643      -0.02596846      -0.02602059       4.45487595
Fe      77.64880907      77.64880850      79.58337859  T      -5.00000000      -0.34896195      -0.34896976       0.32051429       4.17018747
Fe      77.64880965      79.58337826      77.64880975  T      -5.00000000      -0.34887350       0.32045871      -0.34887391       4.17020559
Fe      75.41879455      79.69986932      75.41879454  T      -5.00000000      -0.02601632       0.06164080      -0.02601990       4.45487452
Fe      79.58337825      77.64880953      77.64880972  T      -5.00000000       0.32046103      -0.34887549      -0.34889475       4.17020559
Fe      75.41879508      75.41879498      79.69987025  T      -5.00000000      -0.02600127      -0.02601096       0.06161398       4.45487642
O       77.54434878      77.54434936      77.54434818  T       0.00000000      -0.19257073      -0.19257447      -0.19259824       0.34738079
O       79.67331972      75.50911256      77.43591368  T       0.00000000       0.24771023       0.14173964       0.28674704       0.23449385
O       75.50911311      77.43591374      79.67332121  T       0.00000000       0.14173341       0.28675264       0.24771726       0.23449236
O       77.43591362      79.67331982      75.50911253  T       0.00000000       0.28669971       0.24774194       0.14171824       0.23449302
O       75.50911350      79.67331936      77.43591384  T       0.00000000       0.14172184       0.24775767       0.28670955       0.23449326
O       79.67332081      77.43591411      75.50911242  T       0.00000000       0.24770749       0.28669009       0.14169720       0.23449212
O       77.43591416      75.50911311      79.67332120  T       0.00000000       0.28671864       0.14170977       0.24771863       0.23449197
O       79.48723348      79.48723311      77.50944544  T       0.00000000       0.52953732       0.52953988      -0.49128640       0.32713619
O       75.54054678      81.63154071      75.54054647  T       0.00000000       0.50684965       0.42368177       0.50685883       0.29053718
O       75.54054708      75.54054651      81.63154022  T       0.00000000       0.50684494       0.50684816       0.42369810       0.29053667
O       79.48723195      77.50944437      79.48723351  T       0.00000000       0.52961212      -0.49129349       0.52952504       0.32713467
O       77.50944475      79.48723267      79.48723339  T       0.00000000      -0.49129638       0.52960861       0.52952474       0.32713476
O       81.63153997      75.54054645      75.54054625  T       0.00000000       0.42368472       0.50682908       0.50683266       0.29053724
Fe      72.28166109      76.59229530      80.67089627  T       5.00000000       0.27469593      -0.19827555      -0.38258278       4.04544687
Fe      74.28545966      78.65767343      78.65767373  T       5.00000000       0.83467269      -0.70904326      -0.70902061       4.04732513
Fe      72.28166038      80.67089543      76.59229538  T       5.00000000       0.27463773      -0.38262340      -0.19830659       4.04544687
Fe      73.30441342      77.53283229      75.42962721  T      -5.00000000      -0.16745108       0.19554436       0.06718992       4.44784307
Fe      73.30441350      75.42962731      77.53283128  T      -5.00000000      -0.16741303       0.06719777       0.19558029       4.44784117
Fe      71.14539733      75.42955287      75.42955251  T      -5.00000000      -0.19108820       0.39185190       0.39185068       4.42507601
Fe      71.08503243      77.64975670      77.64975604  T      -5.00000000      -1.23976290       0.49342230       0.49340057       4.28466463
O       69.22780830      77.55244135      77.55244128  T       0.00000000       0.65123630      -0.05771348      -0.05770515       0.08138531
O       71.28881408      75.46858338      77.44183399  T       0.00000000       0.01679569      -0.10885814      -0.02928519       0.29549530
O       71.28881353      77.44183293      75.46858340  T       0.00000000       0.01678914      -0.02922225      -0.10888554       0.29549348
O       73.25334208      77.42524694      77.42524657  T       0.00000000      -0.04864792       0.07663074       0.07662635       0.28672338
O       71.20831793      79.56199657      77.46742786  T       0.00000000      -0.24233925      -0.05594312      -0.29874831       0.25783318
O       71.20832008      77.46743106      79.56199784  T       0.00000000      -0.24233779      -0.29876262      -0.05593766       0.25783265
O       73.38551065      77.51174759      81.74175113  T       0.00000000       0.25008500       0.18932657       0.65850681       0.30347100
O       73.34456636      79.60175305      79.60175195  T       0.00000000      -0.38792080       0.59351850       0.59351850       0.10808164
O       73.27446319      75.45587382      75.45587382  F       0.00000000      -0.37015074       0.19951379       0.19950332       0.32405281
O       73.38551136      81.74175115      77.51174885  T       0.00000000       0.25017172       0.65852612       0.18933685       0.30347088
Fe      78.65767360      74.28545990      78.65767389  T       5.00000000      -0.70903474       0.83468515      -0.70902324       4.04732466
Fe      76.59229512      72.28166041      80.67089629  T       5.00000000      -0.19830252       0.27467343      -0.38262355       4.04544353
Fe      80.67089626      72.28166163      76.59229543  T       5.00000000      -0.38256478       0.27469689      -0.19826525       4.04544497
Fe      77.53283273      73.30441357      75.42962665  T      -5.00000000       0.19545680      -0.16743335       0.06724493       4.44784117
Fe      75.42962708      73.30441346      77.53283193  T      -5.00000000       0.06724243      -0.16743314       0.19549195       4.44784212
Fe      77.64975650      71.08503230      77.64975635  T      -5.00000000       0.49338686      -1.23977578       0.49340326       4.28466368
Fe      75.42955269      71.14539703      75.42955222  T      -5.00000000       0.39183176      -0.19108012       0.39183658       4.42508125
O       77.55244145      69.22780824      77.55244131  T       0.00000000      -0.05771023       0.65125620      -0.05770762       0.08138287
O       77.44183277      71.28881346      75.46858300  T       0.00000000      -0.02919614       0.01677376      -0.10888252       0.29549342
O       75.46858341      71.28881373      77.44183388  T       0.00000000      -0.10885853       0.01680720      -0.02918679       0.29549298
O       77.51174817      73.38551195      81.74175084  T       0.00000000       0.18932199       0.25008741       0.65851533       0.30347040
O       79.56199644      71.20831736      77.46742833  T       0.00000000      -0.05595535      -0.24233449      -0.29873705       0.25783345
O       75.45587382      73.27446319      75.45587382  F       0.00000000       0.19952740      -0.37012574       0.19950089       0.32405248
O       79.60175108      73.34456668      79.60175403  T       0.00000000       0.59352303      -0.38791817       0.59351784       0.10808143
O       77.42524659      73.25334160      77.42524690  T       0.00000000       0.07664247      -0.04865441       0.07661764       0.28672341
O       77.46743137      71.20832046      79.56199757  T       0.00000000      -0.29874945      -0.24230716      -0.05595616       0.25783300
O       81.74175154      73.38551161      77.51174695  T       0.00000000       0.65851986       0.25006315       0.18930742       0.30347040
Fe      70.15989927      74.34063916      78.55821242  T       5.00000000       0.13497087       0.17609063      -0.28248695       4.06596899
Fe      74.34063927      70.15989932      78.55821247  T       5.00000000       0.17606053       0.13497151      -0.28251135       4.06595516
Fe      72.26049192      72.26049184      76.47371092  T       5.00000000       0.06156148       0.06154385       0.19213435       4.36516333
Fe      71.27271982      71.27271986      79.63375257  T      -5.00000000       0.51073396       0.51070005       0.22899491       3.59069538
Fe      69.10437608      73.32092227      75.41491841  T      -5.00000000      -0.08444643      -0.20550624       0.16423020       4.23345280
Fe      73.32092232      69.10437630      75.41491824  T      -5.00000000      -0.20549759      -0.08444250       0.16425899       4.23345280
Fe      73.27660883      73.27660884      79.79186004  T      -5.00000000      -0.09815307      -0.09819119       1.77465892       4.28546000
Fe      69.08282611      71.25366998      77.47366759  T      -5.00000000      -0.35390323       0.27512011      -0.31010586       3.52713132
Fe      71.25367020      69.08282615      77.47366742  T      -5.00000000       0.27514398      -0.35390347      -0.31009981       3.52713370
O       73.27399186      73.27399169      81.58656636  T       0.00000000       0.03090770       0.03089303      -0.80400860       0.09841311
O       75.34996280      73.38339495      79.52999594  T       0.00000000       0.16067785      -0.10668941       0.13445997       0.27406126
O       69.06463324      71.27984319      75.48102386  T       0.00000000      -0.27682495       0.29856896       0.20963186       0.21532372
O       71.27984300      69.06463379      75.48102448  T       0.00000000       0.29855913      -0.27682340       0.20963615       0.21532393
O       73.38339474      75.34996327      79.52999675  T       0.00000000      -0.10669538       0.16065782       0.13439143       0.27406162
O       73.25813954      69.07246836      77.46074010  T       0.00000000      -0.04486510      -0.19665316      -0.18220383       0.23710719
O       71.14870980      71.14870918      77.58382762  T       0.00000000      -0.29497159      -0.29501373       0.24678847       0.14213103
O       75.35623437      75.35623408      77.57685103  T       0.00000000      -0.07910526      -0.07909752      -0.06975803       0.32942277
O       71.23130745      73.25904873      79.63680146  T       0.00000000      -0.43433893      -0.14157447      -0.07466385       0.26230526
O       69.07246829      73.25813966      77.46074014  T       0.00000000      -0.19664362      -0.04483172      -0.18220723       0.23710686
O       73.25904874      71.23130751      79.63680113  T       0.00000000      -0.14158550      -0.43432763      -0.07463729       0.26230562
O       73.37538201      73.37538209      77.56993435  T       0.00000000      -0.00911368      -0.00909123      -0.06614460       0.31710845
Fe      80.67089587      76.59229544      72.28166098  T       5.00000000      -0.38258019      -0.19826287       0.27468395       4.04544592
Fe      76.59229525      80.67089571      72.28166056  T       5.00000000      -0.19831163      -0.38261864       0.27464968       4.04544640
Fe      78.65767391      78.65767391      74.28545829  T       5.00000000      -0.70909321      -0.70911998       0.83475012       4.04732180
Fe      77.53283275      75.42962772      73.30441361  T      -5.00000000       0.19544917       0.06725542      -0.16743535       4.44784307
Fe      75.42962809      77.53283218      73.30441339  T      -5.00000000       0.06724223       0.19548264      -0.16745383       4.44784164
Fe      77.64975608      77.64975602      71.08503267  T      -5.00000000       0.49339405       0.49342173      -1.23976874       4.28466511
Fe      75.42955205      75.42955251      71.14539752  T      -5.00000000       0.39186448       0.39185947      -0.19108135       4.42507648
O       77.55244154      77.55244141      69.22780805  T       0.00000000      -0.05769834      -0.05771745       0.65123671       0.08138436
O       75.46858483      77.44183373      71.28881417  T       0.00000000      -0.10890818      -0.02922302       0.01679784       0.29549366
O       77.44183442      75.46858501      71.28881394  T       0.00000000      -0.02929047      -0.10881682       0.01681542       0.29549482
O       77.51174697      81.74175202      73.38551166  T       0.00000000       0.18933421       0.65853065       0.25015616       0.30347073
O       79.60175284      79.60175372      73.34456994  T       0.00000000       0.59356874       0.59359962      -0.38800105       0.10807547
O       75.45587382      75.45587382      73.27446319  F       0.00000000       0.19953264       0.19951278      -0.37015319       0.32405153
O       79.56199560      77.46742805      71.20831717  T       0.00000000      -0.05593716      -0.29875386      -0.24233797       0.25783381
O       81.74175166      77.51174651      73.38551191  T       0.00000000       0.65850353       0.18929556       0.25006846       0.30346975
O       77.46742822      79.56199551      71.20831782  T       0.00000000      -0.29872409      -0.05593184      -0.24234912       0.25783333
O       77.42524644      77.42524644      73.25334259  T       0.00000000       0.07663162       0.07662527      -0.04863235       0.28672203
Fe      72.26049201      76.47371074      72.26049149  T       5.00000000       0.06156266       0.19213744       0.06156754       4.36516333
Fe      74.34063883      78.55821198      70.15989835  T       5.00000000       0.17613354      -0.28249168       0.13502188       4.06595421
Fe      70.15989899      78.55821210      74.34063915  T       5.00000000       0.13502097      -0.28249532       0.17612949       4.06595373
Fe      71.27271938      79.63375258      71.27271978  T      -5.00000000       0.51073205       0.22901511       0.51073331       3.59069633
Fe      73.32092222      75.41491889      69.10437681  T      -5.00000000      -0.20546415       0.16424701      -0.08444750       4.23345232
Fe      69.10437648      75.41491866      73.32092172  T      -5.00000000      -0.08443752       0.16424008      -0.20548835       4.23345232
Fe      69.08282668      77.47366726      71.25367051  T      -5.00000000      -0.35390228      -0.31010827       0.27513805       3.52713132
Fe      73.27660958      79.79186036      73.27660864  T      -5.00000000      -0.09819058       1.77456355      -0.09818406       4.28545570
Fe      71.25367032      77.47366801      69.08282619  T      -5.00000000       0.27514657      -0.31012940      -0.35388824       3.52712059
O       73.27399138      81.58656705      73.27399166  T       0.00000000       0.03090306      -0.80394924       0.03092936       0.09841606
O       71.27984439      75.48102287      69.06463359  T       0.00000000       0.29850233       0.20969552      -0.27690136       0.21532416
O       73.38339442      79.52999621      75.34996280  T       0.00000000      -0.10659698       0.13447452       0.16062823       0.27406168
O       75.34996310      79.52999465      73.38339410  T       0.00000000       0.16066501       0.13445655      -0.10659692       0.27406153
O       69.06463351      75.48102428      71.27984318  T       0.00000000      -0.27682170       0.20964524       0.29856437       0.21532401
O       73.25813747      77.46073990      69.07247133  T       0.00000000      -0.04487153      -0.18222126      -0.19668400       0.23710489
O       71.23130733      79.63680320      73.25904992  T       0.00000000      -0.43433034      -0.07468891      -0.14158419       0.26230511
O       75.35623348      77.57685101      75.35623411  T       0.00000000      -0.07910116      -0.06974453      -0.07910004       0.32942271
O       71.14870903      77.58382718      71.14870923  T       0.00000000      -0.29500738       0.24677183      -0.29499993       0.14213011
O       73.37538243      77.56993408      73.37538303  T       0.00000000      -0.00911964      -0.06613453      -0.00911823       0.31710839
O       73.25904922      79.63680190      71.23130840  T       0.00000000      -0.14159730      -0.07469845      -0.43433994       0.26230505
O       69.07246975      77.46074113      73.25813791  T       0.00000000      -0.19666122      -0.18222791      -0.04488587       0.23710585
Fe      78.55821193      74.34063929      70.15989840  T       5.00000000      -0.28244913       0.17600551       0.13496634       4.06596136
Fe      76.47371040      72.26049197      72.26049207  T       5.00000000       0.19213466       0.06154700       0.06155749       4.36516333
Fe      78.55821246      70.15989916      74.34063936  T       5.00000000      -0.28250980       0.13497046       0.17605585       4.06595564
Fe      79.63375245      71.27271950      71.27271983  T      -5.00000000       0.22899993       0.51072288       0.51072937       3.59070015
Fe      75.41491844      69.10437611      73.32092189  T      -5.00000000       0.16424516      -0.08442724      -0.20549145       4.23345327
Fe      75.41491876      73.32092258      69.10437663  T      -5.00000000       0.16425055      -0.20549652      -0.08443946       4.23345280
Fe      77.47366717      69.08282663      71.25367000  T      -5.00000000      -0.31010157      -0.35389739       0.27513751       3.52713346
Fe      77.47366814      71.25366998      69.08282611  T      -5.00000000      -0.31010389       0.27513790      -0.35389709       3.52713394
Fe      79.79186108      73.27661000      73.27660966  T      -5.00000000       1.77458596      -0.09820519      -0.09819796       4.28545523
O       81.58656625      73.27399143      73.27399147  T       0.00000000      -0.80393958       0.03090167       0.03091383       0.09841745
O       79.52999485      75.34996320      73.38339431  T       0.00000000       0.13447732       0.16067389      -0.10659228       0.27406257
O       75.48102389      69.06463385      71.27984382  T       0.00000000       0.20963636      -0.27682358       0.29856533       0.21532401
O       75.48102320      71.27984298      69.06463247  T       0.00000000       0.20961845       0.29855102      -0.27682695       0.21532410
O       79.52999625      73.38339543      75.34996266  T       0.00000000       0.13445181      -0.10667361       0.16062817       0.27406254
O       77.56993405      73.37538275      73.37538347  T       0.00000000      -0.06614903      -0.00909817      -0.00911011       0.31710869
O       79.63680195      71.23130633      73.25904837  T       0.00000000      -0.07464081      -0.43431687      -0.14154157       0.26230615
O       79.63680249      73.25904924      71.23130755  T       0.00000000      -0.07470900      -0.14154302      -0.43436146       0.26230681
O       77.46074016      73.25813819      69.07247043  T       0.00000000      -0.18218818      -0.04482652      -0.19663508       0.23710722
O       77.58382861      71.14870980      71.14870935  T       0.00000000       0.24676974      -0.29498973      -0.29500708       0.14213127
O       77.57685088      75.35623400      75.35623390  T       0.00000000      -0.06975526      -0.07911406      -0.07909915       0.32942337
O       77.46074164      69.07246784      73.25813894  T       0.00000000      -0.18222079      -0.19665530      -0.04483105       0.23710716
Fe      74.36516819      74.36516819      74.36516819  F       5.00000000      -0.13649517      -0.13651203      -0.13650259       4.36887980
Fe      70.15615480      74.40841949      70.15615465  T       5.00000000       0.03070940       0.15294544       0.03075042       3.96199751
Fe      74.40841947      70.15615442      70.15615491  T       5.00000000       0.15297920       0.03073592       0.03072521       3.96199131
Fe      70.15615475      70.15615467      74.40841947  T       5.00000000       0.03073020       0.03073134       0.15297668       3.96199179
Fe      71.21003941      71.21003936      71.21003931  T      -5.00000000      -0.11280108      -0.11280096      -0.11280029       3.58753347
Fe      73.31616778      73.31616784      71.15490016  T      -5.00000000      -0.17590266      -0.17589566      -0.13946998       4.42409611
Fe      73.31616755      71.15489995      73.31616770  T      -5.00000000      -0.17589325      -0.13945457      -0.17589960       4.42409658
Fe      71.15490018      73.31616782      73.31616740  T      -5.00000000      -0.13945511      -0.17589271      -0.17589743       4.42409611
O       73.24717528      73.24717473      73.24717444  T       0.00000000      -0.15589797      -0.15590307      -0.15591714       0.32063943
O       71.17646357      75.35734851      73.37235388  T       0.00000000       0.04072246      -0.01224381      -0.03596413       0.33009824
O       75.35734832      73.37235280      71.17646333  T       0.00000000      -0.01226160      -0.03599553       0.04073042       0.33009565
O       73.37235351      71.17646292      75.35734849  T       0.00000000      -0.03596827       0.04073220      -0.01225218       0.33009744
O       75.35734812      71.17646365      73.37235265  T       0.00000000      -0.01223756       0.04072088      -0.03597150       0.33009750
O       71.17646340      73.37235358      75.35734825  T       0.00000000       0.04070511      -0.03598031      -0.01222613       0.33009601
O       73.37235219      75.35734927      71.17646132  T       0.00000000      -0.03590643      -0.01224743       0.04079318       0.33009744
O       69.19165325      73.41104752      73.41104774  T       0.00000000      -0.02117771       0.32013431       0.32012221       0.33555746
O       71.27345942      71.27345919      73.22387856  T       0.00000000      -0.07662581      -0.07662612      -0.20155507       0.23930138
O       75.30370107      69.19470900      75.30370129  T       0.00000000      -0.41863605      -0.18115725      -0.41863394       0.32366189
O       75.30370042      75.30370051      69.19470661  T       0.00000000      -0.41862121      -0.41861933      -0.18114203       0.32366374
O       71.27345936      73.22387832      71.27345908  T       0.00000000      -0.07661642      -0.20155075      -0.07662514       0.23930210
O       73.41104722      69.19165357      73.41104779  T       0.00000000       0.32012659      -0.02116905       0.32012007       0.33555710
O       73.22387827      71.27345959      71.27345918  T       0.00000000      -0.20155486      -0.07662383      -0.07662685       0.23930153
O       69.19470871      75.30370138      75.30370043  T       0.00000000      -0.18113802      -0.41862115      -0.41863310       0.32366478
O       73.41104703      73.41104710      69.19165397  T       0.00000000       0.32010362       0.32010639      -0.02115011       0.33555746
Au      64.83336836      66.85656512      72.96068637  T       0.00000000       0.29968700       0.17708942       0.01067724       0.01112309
Au      64.80379003      68.88745095      70.92521843  T       0.00000000       0.03419853       0.03198034       0.01488816       0.00357558
Au      64.83275685      66.85624818      77.03916071  T       0.00000000       0.29762143       0.17524628      -0.01339335       0.01117182
Au      64.79821597      68.87982071      74.99995140  T       0.00000000      -0.02950398       0.00846025       0.00243887       0.00139377
Au      64.80325874      68.88708215      79.07483435  T       0.00000000       0.03680887       0.03879308      -0.01821107       0.00315017
Au      64.80378988      70.92521828      68.88745066  T       0.00000000       0.03419761       0.01489429       0.03198894       0.00357568
Au      64.83336858      72.96068623      66.85656530  T       0.00000000       0.29968840       0.01067325       0.17709641       0.01112312
Au      62.80799708      70.93330601      70.93330594  T       0.00000000       0.48281711       0.13335204       0.13336018       0.01523304
Au      62.76642520      72.95622766      72.95622766  T       0.00000000       0.01674416      -0.00913790      -0.00914443       0.00350866
Au      64.79385112      70.91463831      72.96000014  T       0.00000000      -0.00015236      -0.07545162       0.04287787       0.00334564
Au      64.79385098      72.96000030      70.91463856  T       0.00000000      -0.00014707       0.04288059      -0.07544772       0.00334579
Au      62.79166705      70.93548398      74.99993310  T       0.00000000       0.30559486       0.14780444      -0.00304133       0.01079790
Au      62.76660373      72.95645433      77.04387558  T       0.00000000       0.01346076      -0.00940689       0.00995646       0.00350590
Au      64.79244044      70.91509318      77.03906448  T       0.00000000      -0.00905371      -0.07611217      -0.04176498       0.00316334
Au      64.79289968      72.95819845      75.00032770  T       0.00000000      -0.01302616       0.00676440       0.00056865       0.00026198
Au      62.80778061      70.93345172      79.06682435  T       0.00000000       0.47642297       0.13424209      -0.13046749       0.01526465
Au      64.80396382      70.92563592      81.11241489  T       0.00000000       0.04655314       0.01782528      -0.04800992       0.00356576
Au      64.79325025      72.96073667      79.08563157  T       0.00000000       0.00642444       0.03563112       0.08035918       0.00387523
Au      64.83350355      72.96105630      83.14323924  T       0.00000000       0.29692915       0.01440939      -0.17476423       0.01110516
Au      64.79821572      74.99995135      68.87982097  T       0.00000000      -0.02947029       0.00244428       0.00842395       0.00139369
Au      64.83275704      77.03916098      66.85624803  T       0.00000000       0.29763621      -0.01339290       0.17524880       0.01117167
Au      62.79166715      74.99993312      70.93548404  T       0.00000000       0.30558866      -0.00303981       0.14781377       0.01079784
Au      62.76660382      77.04387553      72.95645449  T       0.00000000       0.01344996       0.00997561      -0.00941798       0.00350589
Au      64.79289961      75.00032775      72.95819850  T       0.00000000      -0.01302556       0.00057058       0.00675938       0.00026187
Au      64.79244050      77.03906421      70.91509304  T       0.00000000      -0.00906098      -0.04175472      -0.07609405       0.00316346
Au      62.76882588      75.00015199      75.00015188  T       0.00000000       0.06758843      -0.00102635      -0.00101057       0.00201064
Au      62.76700266      77.04382140      77.04382143  T       0.00000000       0.01584278       0.01060462       0.01062852       0.00349186
Au      64.79106330      74.99967249      77.04197737  T       0.00000000      -0.01648318      -0.00323570      -0.00603792       0.00020377
Au      64.79106298      77.04197767      74.99967235  T       0.00000000      -0.01646768      -0.00604186      -0.00324104       0.00020391
Au      62.79220895      75.00009114      79.06466935  T       0.00000000       0.30606824       0.00270081      -0.14212348       0.01078676
Au      64.79804617      75.00001596      81.12026763  T       0.00000000      -0.03460681       0.00455905      -0.00850196       0.00185254
Au      64.79323703      77.03988950      79.08521846  T       0.00000000       0.00085120      -0.03772477       0.07878086       0.00305706
Au      64.83355133      77.03888491      83.14326521  T       0.00000000       0.29981986      -0.01596054      -0.17765841       0.01109801
Au      64.80325874      79.07483400      68.88708206  T       0.00000000       0.03680738      -0.01817872       0.03880209       0.00315008
Au      62.80778080      79.06682440      70.93345195  T       0.00000000       0.47643167      -0.13048244       0.13425425       0.01526471
Au      64.79325005      79.08563139      72.96073653  T       0.00000000       0.00642057       0.08035330       0.03563010       0.00387536
Au      64.80396371      81.11241528      70.92563602  T       0.00000000       0.04658753      -0.04802503       0.01780792       0.00356576
Au      62.79220911      79.06466910      75.00009112  T       0.00000000       0.30606052      -0.14210331       0.00268039       0.01078680
Au      64.79323715      79.08521873      77.03988957  T       0.00000000       0.00085589       0.07878510      -0.03771813       0.00305706
Au      64.79804615      81.12026784      75.00001623  T       0.00000000      -0.03461691      -0.00851640       0.00454260       0.00185260
Au      62.80849507      79.06645190      79.06645192  T       0.00000000       0.48306102      -0.13392971      -0.13393146       0.01522183
Au      64.80325863      79.07456567      81.11279630  T       0.00000000       0.03818465      -0.01512775      -0.04044713       0.00358483
Au      64.80325860      81.11279638      79.07456562  T       0.00000000       0.03816564      -0.04044945      -0.01511328       0.00358489
Au      64.83350384      83.14323902      72.96105618  T       0.00000000       0.29694560      -0.17475337       0.01442263       0.01110524