2666
Lattice="150.0 0.0 0.0 0.0 150.0 0.0 0.0 0.0 150.0" Properties=species:S:1:pos:R:3:move_mask:L:1:initial_magmoms:R:1:forces:R:3:magmoms:R:1 XYZ=T energy=-17449.46875 stress="5.940168921370059e-05 1.7783272596716415e-06 1.77834829173662e-06 1.778438559085771e-06 5.9401634644018486e-05 1.7784649344321224e-06 1.7786609305403545e-06 1.778319301593001e-06 5.9400186728453264e-05" free_energy=-17449.46875 pbc="F F F"
Fe      65.92317214      65.92317200      65.92317240  T       5.00000000      -0.01029400      -0.01029340      -0.01028697       3.67681885
Fe      84.80524242      84.80524254      84.80524228  T       5.00000000      -0.01292292      -0.01292597      -0.01291990       4.14136124
Fe      76.44354172      84.83526578      84.83526619  T       5.00000000      -0.01338418       0.15157898       0.15155660       4.36266041
Fe      81.75166810      86.02480501      83.86277875  T      -5.00000000       0.17924973      -0.11977986       0.42311960       4.40093565
Fe      81.75166828      83.86277845      86.02480516  T      -5.00000000       0.17929459       0.42310363      -0.11977610       4.40093660
Fe      79.59505387      83.78940514      83.78940540  T      -5.00000000       0.24331087       0.11516359       0.11517325       4.40576696
Fe      77.42319743      85.81796097      88.00763040  T      -5.00000000      -0.38599414      -0.23866457       0.18644556       3.69812870
Fe      77.42319740      88.00763026      85.81796112  T      -5.00000000      -0.38598034       0.18646109      -0.23867854       3.69814038
Fe      75.37556351      88.16149390      83.82386483  T      -5.00000000       0.07570350       1.85917020       0.24319005       4.27264833
Fe      79.65236585      85.88955833      85.88955866  T      -5.00000000      -0.15611701       0.10290578       0.10286292       3.85687351
Fe      75.37556373      83.82386512      88.16149346  T      -5.00000000       0.07570782       0.24319893       1.85916853       4.27264786
O       77.58734863      85.96136128      85.96136100  T       0.00000000       0.44752979       0.22831222       0.22828424       0.15433277
O       79.62550266      83.81673744      85.81347119  T       0.00000000      -0.08923739      -0.23765376      -0.01930702       0.31180894
O       75.45608561      85.87770104      87.99721677  T       0.00000000       0.07061985       0.34524983      -0.08181612       0.27077678
O       77.45899072      88.00106228      83.87870304  T       0.00000000       0.29155809      -0.07439636       0.07336850       0.29202777
O       75.45608477      87.99721727      85.87770113  T       0.00000000       0.07060391      -0.08179212       0.34525114       0.27077776
O       79.62550203      85.81347112      83.81673690  T       0.00000000      -0.08923870      -0.01928496      -0.23757538       0.31180999
O       77.45898942      83.87870271      88.00106258  T       0.00000000       0.29155797       0.07334046      -0.07440066       0.29202729
O       81.56882439      85.80964703      85.80964685  T       0.00000000      -0.03600362       0.11576870       0.11576924       0.28129658
O       75.43209137      89.95368599      83.82240826  T       0.00000000      -0.03065781      -1.11088502      -0.05448228       0.12910831
O       75.43209142      83.82240797      89.95368621  T       0.00000000      -0.03065884      -0.05447845      -1.11088645       0.12910843
O       81.61160029      83.83425247      83.83425238  T       0.00000000      -0.09289198       0.03865804       0.03866912       0.30801725
Fe      68.04134750      84.90949602      84.90949607  T       5.00000000      -0.23134007      -0.06659591      -0.06662107       4.31113768
Fe      74.36722374      86.93386060      86.93386035  T       5.00000000      -0.26656917      -0.16703190      -0.16702293       4.11766481
Fe      73.27159893      85.96738756      83.79903413  T      -5.00000000      -0.19765685       0.11478242       0.32346386       4.43425703
Fe      73.27159904      83.79903414      85.96738782  T      -5.00000000      -0.19766688       0.32347858       0.11479119       4.43425703
Fe      71.18048793      83.79900916      83.79900962  T      -5.00000000       0.15546483       0.32833260       0.32833630       4.42478132
Fe      71.04396101      86.02334368      86.02334365  T      -5.00000000      -0.51381433       1.02101970       1.02101851       3.93714476
O       69.17789949      85.89652562      85.89652528  T       0.00000000       0.33577240       0.15653910       0.15651451       0.16185722
O       71.27432631      83.84623788      85.79032487  T       0.00000000      -0.10554832       0.03827888      -0.03846836       0.25806165
O       69.10101031      87.99187446      83.77334312  T       0.00000000      -0.03186447       0.21006685      -0.04769383       0.21202782
O       71.27432605      85.79032516      83.84623799  T       0.00000000      -0.10555178      -0.03849173       0.03823870       0.25806254
O       69.10101126      83.77334385      87.99187505  T       0.00000000      -0.03192527      -0.04765420       0.21011876       0.21202075
O       73.23913730      85.82221370      85.82221365  T       0.00000000       0.06858129       0.12499987       0.12498073       0.26768592
O       71.16229792      87.84456927      85.93129860  T       0.00000000       0.22776285      -1.05459845       0.09625405       0.15495786
O       71.16229745      85.93129815      87.84456931  T       0.00000000       0.22777568       0.09622347      -1.05462158       0.15495628
O       73.23241739      83.85034213      83.85034166  T       0.00000000       0.01291867      -0.01452035      -0.01454405       0.32216406
Fe      64.96900400      85.90279866      83.70819131  T      -5.00000000       0.24699301       0.14787205      -0.22637373       3.77287960
Fe      64.96900414      83.70819141      85.90279871  T      -5.00000000       0.24698743      -0.22637600       0.14786646       3.77287841
Fe      62.77600073      83.70586090      83.70586046  T      -5.00000000      -0.06950235      -0.25397709      -0.25398031       3.79822016
O       64.81220443      83.86396097      83.86396174  T       0.00000000      -0.26146573       0.20231830       0.20232233       0.17635307
Fe      84.83526546      76.44354154      84.83526611  T       5.00000000       0.15157716      -0.01338167       0.15156123       4.36266041
Fe      86.02480498      81.75166791      83.86277887  T      -5.00000000      -0.11978029       0.17926279       0.42311919       4.40093613
Fe      83.86277841      81.75166829      86.02480512  T      -5.00000000       0.42309856       0.17928463      -0.11977670       4.40093613
Fe      88.16149392      75.37556354      83.82386477  T      -5.00000000       1.85921180       0.07569300       0.24319206       4.27265263
Fe      85.81796086      77.42319734      88.00763035  T      -5.00000000      -0.23867014      -0.38599160       0.18645358       3.69813895
Fe      85.88955849      79.65236584      85.88955870  T      -5.00000000       0.10289596      -0.15612441       0.10286647       3.85687351
Fe      83.78940541      79.59505386      83.78940561  T      -5.00000000       0.11516809       0.24331543       0.11517972       4.40576696
Fe      88.00763022      77.42319731      85.81796094  T      -5.00000000       0.18643385      -0.38598219      -0.23866066       3.69812894
Fe      83.82386522      75.37556350      88.16149339  T      -5.00000000       0.24320310       0.07569683       1.85920715       4.27265215
O       85.96136103      77.58734933      85.96136141  T       0.00000000       0.22828022       0.44755411       0.22828355       0.15433319
O       87.99721757      75.45608457      85.87770129  T       0.00000000      -0.08180377       0.07062668       0.34525639       0.27077717
O       83.87870293      77.45898982      88.00106221  T       0.00000000       0.07336015       0.29155868      -0.07440697       0.29202816
O       85.81347172      79.62550257      83.81673664  T       0.00000000      -0.01928121      -0.08924896      -0.23758566       0.31180999
O       83.81673682      79.62550288      85.81347249  T       0.00000000      -0.23759636      -0.08926636      -0.01930189       0.31180891
O       88.00106247      77.45899025      83.87870313  T       0.00000000      -0.07439092       0.29156217       0.07334206       0.29202729
O       85.87770101      75.45608548      87.99721634  T       0.00000000       0.34523481       0.07061713      -0.08181694       0.27077842
O       83.83425238      81.61160073      83.83425290  T       0.00000000       0.03867066      -0.09288518       0.03866354       0.30801705
O       83.82240811      75.43209146      89.95368651  T       0.00000000      -0.05445776      -0.03065896      -1.11091578       0.12910897
O       85.80964656      81.56882451      85.80964738  T       0.00000000       0.11576302      -0.03599811       0.11576881       0.28129676
O       89.95368664      75.43209172      83.82240851  T       0.00000000      -1.11091626      -0.03066070      -0.05445991       0.12910837
Fe      76.43817468      76.43817468      84.83467432  F       5.00000000      -0.04385836      -0.04385806      -0.21830121       4.38744116
Fe      80.67424874      76.45693998      89.14458189  T       5.00000000      -0.15874510      -0.59091806      -0.02857102       4.31772089
Fe      78.53232725      82.76307277      86.98219180  T       5.00000000       0.15059885       0.08171648       0.11876830       4.37383413
Fe      76.45693932      80.67424884      89.14458170  T       5.00000000      -0.59092462      -0.15875272      -0.02857605       4.31772089
Fe      82.76307275      78.53232794      86.98219199  T       5.00000000       0.08172119       0.15060516       0.11877252       4.37383413
Fe      80.64474931      80.64474950      84.83379477  T       5.00000000       0.08022747       0.08022723       0.04461450       4.38836145
Fe      79.58721827      79.58721759      88.06209766  T      -5.00000000       0.07952591       0.07952430       0.05984458       4.43880510
Fe      77.48773768      81.68598768      83.78511232  F      -5.00000000       0.01267976       0.00806013      -0.23869902       4.26908255
Fe      81.68598768      77.48773768      83.78511232  F      -5.00000000       0.00805914       0.01267719      -0.23869722       4.26908207
Fe      81.68243159      75.39526708      85.89123378  T      -5.00000000       0.20596862      -0.12131843       0.13904303       4.39793062
Fe      77.48810838      75.40100456      90.22346239  T      -5.00000000       0.06998090      -0.07279278       1.74711764       4.25398302
Fe      75.40100492      77.48810809      90.22346221  T      -5.00000000      -0.07279235       0.06998228       1.74711752       4.25398302
Fe      75.39526728      81.68243162      85.89123344  T      -5.00000000      -0.12132221       0.20597655       0.13904980       4.39793062
Fe      79.58686268      75.38861268      83.78511232  F      -5.00000000      -0.13805215      -0.14424890      -0.23330642       4.26155853
Fe      77.49156741      77.49156749      88.07078960  T      -5.00000000      -0.12464143      -0.12464154       0.15299392       4.41664648
Fe      81.82913168      81.82913123      87.95136514  T      -5.00000000      -0.32671237      -0.32671759       0.04309177       4.08726740
Fe      81.64742721      79.40756896      90.09408331  T      -5.00000000       0.02883118      -0.60078365      -0.05479705       3.92308617
Fe      77.48773768      79.58686268      85.88423732  F      -5.00000000      -0.03208686      -0.04918227      -0.06741428       4.36527872
Fe      75.38861268      79.58686268      83.78511232  F      -5.00000000      -0.14424318      -0.13805605      -0.23330837       4.26155853
Fe      79.58686268      77.48773768      85.88423732  F      -5.00000000      -0.04917296      -0.03209463      -0.06741214       4.36527920
Fe      79.40756822      81.64742564      90.09408255  T      -5.00000000      -0.60079610       0.02884507      -0.05481559       3.92309809
Fe      75.38725047      75.38725044      88.06188473  T      -5.00000000       0.14343536       0.14343542       0.26900339       4.40132570
O       77.52888068      77.52888068      85.92538032  F       0.00000000       0.31174320       0.31174678       0.22673982       0.31352049
O       79.62800468      75.42975568      85.84309432  F       0.00000000       0.30350021       0.33570772       0.01616363       0.29896960
O       83.62201480      81.68559326      87.88117617  T       0.00000000       0.24099189      -0.37632498       0.43585846       0.29970470
O       75.44529663      77.42971471      88.01406652  T       0.00000000      -0.01362950       0.00011402      -0.19542080       0.31389958
O       77.44659468      79.62800468      83.82625532  F       0.00000000       0.12293872      -0.10378182       0.33180597       0.27754846
O       75.42975568      79.62800468      85.84309432  F       0.00000000       0.33571094       0.30349264       0.01616040       0.29896969
O       79.62800468      77.44659468      83.82625532  F       0.00000000      -0.10376441       0.12294897       0.33180073       0.27754825
O       77.42971475      75.44529721      88.01406550  T       0.00000000       0.00011483      -0.01363692      -0.19541228       0.31389952
O       81.68559365      83.62201377      87.88117697  T       0.00000000      -0.37632191       0.24099490       0.43586597       0.29970479
O       77.61087148      81.70736414      90.10743214  T       0.00000000       0.29416478       0.21329126       0.35952678       0.34221569
O       81.62772420      77.42779314      85.84090982  T       0.00000000      -0.16534245      -0.08230367       0.16428278       0.31534383
O       79.53416588      79.53416571      85.94873177  T       0.00000000      -0.15069167      -0.15069310       0.08061922       0.32760105
O       79.72308717      79.72308933      90.01562028  T       0.00000000       0.44156906       0.44154826       0.35924667       0.30346340
O       75.42975568      81.64484468      83.82625532  F       0.00000000      -0.06733367       0.09644328       0.31620854       0.28219685
O       75.48401268      75.48401278      89.96197318  T       0.00000000       0.07984477       0.07984513      -0.17599046       0.18496230
O       83.74553913      83.74553856      85.88459666  T       0.00000000      -0.01098759      -0.01098858       0.02632228       0.30486917
O       79.67834565      81.62406245      88.04548181  T       0.00000000       0.32042941       0.12746665       0.32416210       0.27021557
O       79.52077705      77.55591014      87.90132966  T       0.00000000       0.16473469      -0.02880107       0.04370561       0.33008108
O       81.70736390      77.61087020      90.10743182  T       0.00000000       0.21328370       0.29413903       0.35952252       0.34221363
O       77.42779282      81.62772431      85.84091009  T       0.00000000      -0.08230263      -0.16533661       0.16428113       0.31534359
O       77.55591037      79.52077711      87.90132928  T       0.00000000      -0.02881962       0.16471404       0.04370266       0.33008128
O       81.62406201      79.67834565      88.04548030  T       0.00000000       0.12744166       0.32041496       0.32414809       0.27021456
O       81.64484468      75.42975568      83.82625532  F       0.00000000       0.09644340      -0.06732982       0.31620473       0.28219718
O       81.72652122      81.72652128      85.90937944  T       0.00000000       0.07147104       0.07146814      -0.17766219       0.31792083
O       77.38797308      77.38797318      89.95998565  T       0.00000000      -0.02733839      -0.02734616      -0.09796064       0.20153409
Fe      68.04167505      76.43817468      84.83467432  F       5.00000000       0.05240806      -0.19310851       0.07080713       4.37664557
Fe      72.24152636      76.44768100      89.10749044  T       5.00000000      -0.05711969      -0.02885782       0.39629933       4.32234907
Fe      70.06606468      82.81705313      87.01962850  T       5.00000000       0.01235625       0.09715322      -0.12728880       4.07628918
Fe      74.33905005      78.53729968      86.93379932  F       5.00000000      -0.04234198      -0.01515708       0.40368974       4.38173056
Fe      72.23992505      80.63642468      84.83467432  F       5.00000000       0.20522833      -0.01451749       0.03799085       4.38378286
Fe      71.12798856      79.59314601      88.06272975  T      -5.00000000       0.00302160       0.19811052       0.31294292       4.42075872
Fe      69.09123805      81.68598768      83.78511232  F      -5.00000000      -0.10144332      -0.00045964       0.29392645       4.40145779
Fe      73.28948805      77.48773768      83.78511232  F      -5.00000000       0.12234026       0.10410613      -0.15508638       4.25932360
Fe      73.28948805      75.38861268      85.88423732  F      -5.00000000       0.03831691       0.02746335      -0.14585344       4.31569433
Fe      69.08589322      75.39219268      90.08211330  T      -5.00000000       0.09365657      -0.34553123      -0.07188538       4.28499603
Fe      67.02779252      77.44515016      90.10091516  T      -5.00000000      -0.15226942      -0.00555706       0.24151239       3.75262117
Fe      66.93397455      81.74254090      86.05055879  T      -5.00000000       0.01952000       0.02992398       1.76596737       4.28770113
Fe      71.19036305      75.38861268      83.78511232  F      -5.00000000      -0.10459822      -0.12482671      -0.18452626       4.25753260
Fe      69.08554960      77.55338994      88.05642265  T      -5.00000000      -0.15160112       0.03566010       0.25803268       4.42213488
Fe      73.29024105      81.76000762      88.06665058  T      -5.00000000       0.00933486       0.21827185       0.27333301       4.42479134
Fe      73.30470047      79.58648781      90.08693991  T      -5.00000000       0.25083488      -0.18263434      -0.03553295       4.27792025
Fe      69.07863316      79.60046831      85.95690734  T      -5.00000000      -0.18979555       0.27674884       0.08561876       4.43060446
Fe      66.98642348      79.58478550      83.79320574  T      -5.00000000       0.04934055       0.13161820       0.18151903       4.40631247
Fe      71.19036305      77.48773768      85.88423732  F      -5.00000000       0.04731295       0.01368048      -0.05477668       4.33091402
Fe      71.23842531      81.64702585      90.08371600  T      -5.00000000      -0.11045688       0.20852757       0.08030230       3.80610967
Fe      66.91496199      75.38962298      88.05094333  T      -5.00000000      -0.26544604      -0.07993418       0.22342104       4.43031836
O       69.13771908      77.54390953      85.93653119  T       0.00000000       0.19782963       0.01475118       0.00094467       0.32548922
O       73.18153635      81.57533584      90.01400585  T       0.00000000       0.06034914      -0.13401026       0.22519696       0.30276030
O       71.23150505      75.42975568      85.84309432  F       0.00000000       0.16075072       0.26855826       0.08947515       0.28040537
O       75.32871885      81.73298411      87.89093173  T       0.00000000       0.22782218      -0.23946667       0.00070545       0.30922887
O       67.05170938      77.42849231      88.04126684  T       0.00000000      -0.17191389       0.16863185       0.04710150       0.25650415
O       69.05009505      79.62800468      83.82625532  F       0.00000000      -0.24753332       0.23473895       0.19723181       0.32238495
O       67.07613625      79.64724147      85.78809261  T       0.00000000      -0.05051586      -0.09663838      -0.13808003       0.28710049
O       75.28764333      79.52386057      90.10980091  T       0.00000000      -0.06477845       0.16109166      -0.09794052       0.22621796
O       71.23150505      77.44659468      83.82625532  F       0.00000000      -0.08844319       0.09248133       0.31116441       0.27316794
O       69.03116290      75.44545521      88.02550521  T       0.00000000      -0.04184836       0.07414876      -0.09271365       0.33838242
O       73.38678364      83.68263311      87.86467251  T       0.00000000       0.12599219      -0.13751429       0.03912050       0.29548851
O       73.24834505      77.44659468      85.84309432  F       0.00000000      -0.29562950      -0.19871111       0.04362417       0.28309733
O       71.14922005      79.54571968      85.92538032  F       0.00000000      -0.17048107      -0.30902094       0.10918260       0.32298374
O       71.30108213      79.69624422      90.02013536  T       0.00000000       0.06122769      -0.07946719       0.19274127       0.29977185
O       75.35656919      77.52404971      92.08460306  T       0.00000000       0.06883809      -0.03260558      -0.93041390       0.24517500
O       67.05215396      81.62428657      83.83942795  T       0.00000000       0.04042837      -0.03847660      -0.11955711       0.32516101
O       67.09605076      75.48167714      90.00720493  T       0.00000000       0.14638257       0.01935615       0.08390681       0.29958433
O       75.33337112      83.72662535      85.92988209  T       0.00000000       0.11464682      -0.05681132      -0.14424601       0.31662491
O       71.24719729      81.63034220      88.03655057  T       0.00000000      -0.16939661       0.12688763      -0.01037243       0.25745794
O       71.13497275      77.53936197      87.91524362  T       0.00000000       0.08120905      -0.10538372      -0.04906654       0.32766768
O       73.34737412      77.57756837      90.10756863  T       0.00000000      -0.10363247       0.11607461      -0.11447531       0.23027048
O       69.03184848      81.60413894      85.79091041  T       0.00000000       0.04786687       0.00696827      -0.20061252       0.28532392
O       69.18747628      79.48884503      87.86728884  T       0.00000000       0.18497697      -0.17407209       0.01647852       0.35420826
O       73.22947339      79.64762349      88.02515467  T       0.00000000      -0.09981456       0.06134558      -0.12419704       0.34753260
O       73.24834505      75.42975568      83.82625532  F       0.00000000       0.11267355      -0.10195985       0.17839764       0.27134681
O       73.34993947      81.74009998      85.93325354  T       0.00000000       0.14777276      -0.06586924      -0.06447828       0.33121568
O       68.98468933      77.37489710      90.01807712  T       0.00000000       0.00882402      -0.10868491       0.17783535       0.29234833
Fe      65.86397616      78.62492897      87.02340813  T       5.00000000       0.42934036      -0.06200022      -0.26270670       4.06406736
Fe      63.75665841      80.62821863      84.91948158  T       5.00000000      -0.00304975       0.21740049       0.03766878       4.33550739
Fe      64.87960800      77.49404104      83.79708966  T      -5.00000000      -0.04314703      -0.14222872      -0.01052012       4.41605520
Fe      64.82020845      75.39018249      85.96230253  T      -5.00000000      -0.23390327      -0.02401328       0.31616461       4.42195749
Fe      62.72019050      75.40194934      83.85907973  T      -5.00000000      -0.49279898       0.01155272       0.20994109       4.41257858
Fe      62.78366525      77.58118909      85.89470059  T      -5.00000000       0.13453346       0.43629435      -0.14097762       4.00019217
O       62.87572024      75.52077663      85.80059579  T       0.00000000      -0.09460175       0.78953445       0.08038634       0.30355451
O       66.96292083      81.71484327      87.86601927  T       0.00000000       0.17565660      -0.17590788      -1.01938164       0.17983088
O       60.66791599      79.58420288      83.79644693  T       0.00000000      -0.44842672       0.11815120       0.38723385       0.17188767
O       62.86960919      77.41812012      83.83604417  T       0.00000000      -0.14664119       0.18580794       0.13043024       0.29828450
O       64.84583705      77.41500350      85.80714419  T       0.00000000      -0.10904203       0.12028397       0.08909042       0.29890281
O       62.78364637      79.45019366      85.90016559  T       0.00000000      -0.15946767      -0.80279112       0.21444364       0.31277147
O       66.89840899      83.74601529      85.90398864  T       0.00000000       0.00826056       0.47047979      -0.16710061       0.28544173
O       64.91283078      79.56457523      87.98412644  T       0.00000000      -0.25816834       0.09329796       0.37963748       0.13590285
O       64.84113324      75.44934510      83.83601613  T       0.00000000      -0.02320444       0.05441488       0.01318065       0.32463157
O       64.93096554      81.78016772      85.90245269  T       0.00000000      -0.56713986      -0.10205938      -0.21067461       0.29006913
Fe      84.90949626      68.04134737      84.90949623  T       5.00000000      -0.06661141      -0.23133029      -0.06660873       4.31113815
Fe      86.93386046      74.36722384      86.93386032  T       5.00000000      -0.16703220      -0.26656887      -0.16702184       4.11766577
Fe      85.96738752      73.27159907      83.79903365  T      -5.00000000       0.11478710      -0.19765227       0.32346565       4.43425655
Fe      83.79903472      73.27159881      85.96738759  T      -5.00000000       0.32347071      -0.19766968       0.11479400       4.43425608
Fe      86.02334334      71.04396099      86.02334380  T      -5.00000000       1.02102232      -0.51381320       1.02101994       3.93714619
Fe      83.79900911      71.18048813      83.79900943  T      -5.00000000       0.32834315       0.15546679       0.32835680       4.42478228
O       85.89652544      69.17789968      85.89652544  T       0.00000000       0.15651858       0.33579415       0.15654211       0.16185644
O       83.77334309      69.10101064      87.99187481  T       0.00000000      -0.04768902      -0.03185762       0.21006228       0.21202716
O       85.79032552      71.27432624      83.84623835  T       0.00000000      -0.03849578      -0.10555112       0.03822833       0.25806290
O       83.84623832      71.27432612      85.79032506  T       0.00000000       0.03823858      -0.10555923      -0.03850725       0.25806263
O       87.99187484      69.10101031      83.77334276  T       0.00000000       0.21007410      -0.03186986      -0.04771086       0.21202758
O       87.84456921      71.16229823      85.93129876  T       0.00000000      -1.05460417       0.22776687       0.09626089       0.15495688
O       83.85034183      73.23241754      83.85034220  T       0.00000000      -0.01451883       0.01293711      -0.01452443       0.32216379
O       85.82221333      73.23913688      85.82221463  T       0.00000000       0.12499855       0.06858435       0.12498041       0.26768640
O       85.93129874      71.16229804      87.84456913  T       0.00000000       0.09625287       0.22775774      -1.05460012       0.15495709
Fe      76.43817468      68.04167505      84.83467432  F       5.00000000      -0.19310984       0.05241130       0.07080813       4.37664557
Fe      78.53729968      74.33905005      86.93379932  F       5.00000000      -0.01515777      -0.04234304       0.40368938       4.38173056
Fe      76.44768094      72.24152655      89.10749053  T       5.00000000      -0.02885750      -0.05711955       0.39629900       4.32234907
Fe      82.81705337      70.06606491      87.01962862  T       5.00000000       0.09721151       0.01230904      -0.12725037       4.07629347
Fe      80.63642468      72.23992505      84.83467432  F       5.00000000      -0.01451848       0.20522815       0.03798988       4.38378239
Fe      79.59314605      71.12798864      88.06273005  T      -5.00000000       0.19810702       0.00301918       0.31294060       4.42075825
Fe      77.48773768      73.28948805      83.78511232  F      -5.00000000       0.10410371       0.12233981      -0.15508448       4.25932360
Fe      81.68598768      69.09123805      83.78511232  F      -5.00000000      -0.00046152      -0.10144868       0.29392529       4.40145826
Fe      81.74254104      66.93397443      86.05055877  T      -5.00000000       0.02992608       0.01951918       1.76595068       4.28770113
Fe      77.44515004      67.02779245      90.10091529  T      -5.00000000      -0.00553741      -0.15227476       0.24152149       3.75261974
Fe      75.39219252      69.08589308      90.08211378  T      -5.00000000      -0.34553593       0.09365153      -0.07188090       4.28499842
Fe      75.38861268      73.28948805      85.88423732  F      -5.00000000       0.02746178       0.03832054      -0.14585161       4.31569481
Fe      79.58478548      66.98642363      83.79320579  T      -5.00000000       0.13161579       0.04932931       0.18151873       4.40631294
Fe      77.55339024      69.08554962      88.05642226  T      -5.00000000       0.03565937      -0.15159765       0.25803053       4.42213583
Fe      81.76000765      73.29024116      88.06665070  T      -5.00000000       0.21827257       0.00933868       0.27333432       4.42479086
Fe      81.64702557      71.23842527      90.08371604  T      -5.00000000       0.20853004      -0.11045218       0.08030570       3.80610991
Fe      77.48773768      71.19036305      85.88423732  F      -5.00000000       0.01369014       0.04730102      -0.05477098       4.33091307
Fe      75.38861268      71.19036305      83.78511232  F      -5.00000000      -0.12482888      -0.10460532      -0.18452829       4.25753260
Fe      79.60046834      69.07863306      85.95690710  T      -5.00000000       0.27674234      -0.18978481       0.08561769       4.43060446
Fe      79.58648774      73.30470041      90.08693999  T      -5.00000000      -0.18263285       0.25083211      -0.03553301       4.27792025
Fe      75.38962355      66.91496177      88.05094343  T      -5.00000000      -0.07993418      -0.26540318       0.22343415       4.43032026