898
Lattice="150.0 0.0 0.0 0.0 150.0 0.0 0.0 0.0 150.0" Properties=species:S:1:pos:R:3:move_mask:L:1:initial_magmoms:R:1:forces:R:3:magmoms:R:1 XYZ=T energy=-3505.514892578125 stress="8.48252238938585e-06 -6.050004230928607e-08 -6.031195454170302e-08 -6.052388812349818e-08 8.482500561513007e-06 -6.039871891516668e-08 -6.035103439216982e-08 -6.040533406803661e-08 8.482622433803044e-06" free_energy=-3505.514892578125 pbc="F F F"
Fe      76.47086506      76.47086505      76.47086495  T       5.00000000      -0.10438055      -0.10438307      -0.10439679       4.36910105
Fe      77.46801673      81.71668218      75.26506301  T      -5.00000000      -0.07846889      -0.10189367      -0.87744832       3.80855489
Fe      81.71668196      77.46801661      75.26506325  T      -5.00000000      -0.10189319      -0.07846839      -0.87744886       3.80855465
Fe      81.71668175      75.26506349      77.46801668  T      -5.00000000      -0.10190701      -0.87747014      -0.07848558       3.80855608
Fe      77.46801631      75.26506322      81.71668163  T      -5.00000000      -0.07840928      -0.87736857      -0.10185272       3.80855250
Fe      75.26506345      77.46801625      81.71668196  T      -5.00000000      -0.87746823      -0.07853787      -0.10191193       3.80855513
Fe      75.26506341      81.71668179      77.46801671  T      -5.00000000      -0.87746763      -0.10190646      -0.07848530       3.80855536
Fe      79.69960195      75.41899321      75.41899310  T      -5.00000000       0.10728186      -0.01465270      -0.01466620       4.45485830
Fe      77.64715181      77.64715156      79.58357304  T      -5.00000000      -0.31846726      -0.31849915       0.30894366       4.17135143
Fe      77.64715208      79.58357278      77.64715253  T      -5.00000000      -0.31846726       0.30894282      -0.31846344       4.17135000
Fe      75.41899304      79.69960189      75.41899316  T      -5.00000000      -0.01465267       0.10728431      -0.01466286       4.45485926
Fe      79.58357301      77.64715196      77.64715246  T      -5.00000000       0.30893850      -0.31846589      -0.31845906       4.17135000
Fe      75.41899378      75.41899340      79.69960177  T      -5.00000000      -0.01462770      -0.01466447       0.10732543       4.45485878
O       77.54455124      77.54455102      77.54455292  T       0.00000000      -0.18803339      -0.18804431      -0.18804784       0.34779650
O       79.67251165      75.50847477      77.43609078  T       0.00000000       0.20237148       0.15093178       0.27732056       0.23475021
O       75.50847771      77.43609380      79.67251163  T       0.00000000       0.15088567       0.27731061       0.20237857       0.23475018
O       77.43609082      79.67251246      75.50847424  T       0.00000000       0.27732766       0.20236337       0.15091285       0.23474988
O       75.50847532      79.67251254      77.43609180  T       0.00000000       0.15090856       0.20237637       0.27731183       0.23475051
O       79.67251275      77.43609170      75.50847478  T       0.00000000       0.20236325       0.27734086       0.15092906       0.23474973
O       77.43609212      75.50847654      79.67251254  T       0.00000000       0.27730599       0.15090081       0.20229232       0.23474994
O       79.48757865      79.48757799      77.50872010  T       0.00000000       0.48976225       0.48976830      -0.51170617       0.32679188
O       75.53926766      81.63106119      75.53926764  T       0.00000000       0.49282372       0.37711069       0.49284893       0.29189366
O       75.53926898      75.53926869      81.63106190  T       0.00000000       0.49274081       0.49291840       0.37709814       0.29189327
O       79.48757756      77.50871901      79.48757820  T       0.00000000       0.48978150      -0.51167911       0.48977417       0.32679209
O       77.50871695      79.48757625      79.48757819  T       0.00000000      -0.51168197       0.48977733       0.48976806       0.32679197
O       81.63106139      75.53926720      75.53926824  T       0.00000000       0.37711489       0.49282244       0.49284846       0.29189357
Fe      72.28116555      76.59101992      80.67099709  T       5.00000000       0.30167547      -0.19240826      -0.35497403       4.04221249
Fe      74.28630880      78.65717334      78.65717358  T       5.00000000       0.83936632      -0.70207167      -0.70207572       4.04913139
Fe      72.28116571      80.67099698      76.59102018  T       5.00000000       0.30163881      -0.35501516      -0.19238356       4.04221201
Fe      73.30455948      77.53284157      75.42963488  T      -5.00000000      -0.16376323       0.19642884       0.07054135       4.44765902
Fe      73.30455971      75.42963561      77.53284113  T      -5.00000000      -0.16378278       0.07056659       0.19646573       4.44765472
Fe      71.14571803      75.42927767      75.42927747  T      -5.00000000      -0.20007798       0.38294953       0.38295531       4.42475462
Fe      71.08609417      77.64894997      77.64895018  T      -5.00000000      -1.24944556       0.50283134       0.50282568       4.28413725
O       69.22781691      77.55232947      77.55232982  T       0.00000000       0.66246700      -0.05158763      -0.05158825       0.07879163
O       71.28849156      75.46825842      77.44200349  T       0.00000000       0.01416147      -0.11105284      -0.02526981       0.29567504
O       71.28849103      77.44200164      75.46825717  T       0.00000000       0.01410794      -0.02524769      -0.11109532       0.29567444
O       73.25357384      77.42565155      77.42565083  T       0.00000000      -0.05670822       0.05978213       0.05987425       0.28687990
O       71.20859109      79.56101334      77.46758350  T       0.00000000      -0.23507801      -0.07760242      -0.29818231       0.25778812
O       71.20859302      77.46758570      79.56101393  T       0.00000000      -0.23511651      -0.29815546      -0.07764843       0.25778782
O       73.38459758      77.51208865      81.74112129  T       0.00000000       0.18795496       0.17616162       0.61671638       0.30655608
O       73.34414356      79.60155237      79.60155442  T       0.00000000      -0.39468721       0.59455717       0.59455657       0.10897279
O       73.27446319      75.45587382      75.45587382  F       0.00000000      -0.36927623       0.20112807       0.20110995       0.32425392
O       73.38459837      81.74112035      77.51208870  T       0.00000000       0.18794644       0.61670798       0.17616265       0.30655521
Fe      78.65717386      74.28630773      78.65717393  T       5.00000000      -0.70216376       0.83945239      -0.70211220       4.04912853
Fe      76.59101991      72.28116605      80.67099737  T       5.00000000      -0.19234629       0.30160815      -0.35502785       4.04220963
Fe      80.67099694      72.28116563      76.59102035  T       5.00000000      -0.35502118       0.30163053      -0.19238308       4.04221201
Fe      77.53284203      73.30455958      75.42963465  T      -5.00000000       0.19644290      -0.16376716       0.07050876       4.44765997
Fe      75.42963539      73.30455968      77.53284173  T      -5.00000000       0.07055929      -0.16376734       0.19644009       4.44765663
Fe      77.64895035      71.08609430      77.64895003  T      -5.00000000       0.50285733      -1.24945486       0.50284600       4.28414297
Fe      75.42927809      71.14571838      75.42927770  T      -5.00000000       0.38295710      -0.20004627       0.38293672       4.42475510
O       77.55232968      69.22781690      77.55232979  T       0.00000000      -0.05157990       0.66246122      -0.05156938       0.07879640
O       77.44200167      71.28849120      75.46825757  T       0.00000000      -0.02526784       0.01412934      -0.11110818       0.29567489
O       75.46825813      71.28849192      77.44200276  T       0.00000000      -0.11109154       0.01412505      -0.02525440       0.29567546
O       77.51208892      73.38459839      81.74111990  T       0.00000000       0.17621619       0.18784465       0.61668462       0.30654994
O       79.56101251      71.20859081      77.46758356  T       0.00000000      -0.07761346      -0.23507494      -0.29816854       0.25778994
O       75.45587382      73.27446319      75.45587382  F       0.00000000       0.20110433      -0.36928132       0.20112003       0.32425326
O       79.60155287      73.34414581      79.60155437  T       0.00000000       0.59458745      -0.39476112       0.59463978       0.10896727
O       77.42565142      73.25357432      77.42565118  T       0.00000000       0.05980592      -0.05667925       0.05989620       0.28687972
O       77.46758486      71.20859086      79.56101371  T       0.00000000      -0.29819435      -0.23508178      -0.07760806       0.25778967
O       81.74112060      73.38459829      77.51208872  T       0.00000000       0.61669803       0.18794365       0.17617714       0.30655494
Fe      70.15998639      74.34162095      78.55855181  T       5.00000000       0.13495862       0.17069578      -0.28274810       4.06465101
Fe      74.34162069      70.15998621      78.55855178  T       5.00000000       0.17069376       0.13497639      -0.28273988       4.06466103
Fe      72.26070912      72.26070916      76.47332237  T       5.00000000       0.05310187       0.05311085       0.19676213       4.36467743
Fe      71.27208371      71.27208375      79.63324268  T      -5.00000000       0.50678366       0.50675285       0.22690666       3.58233237
Fe      69.10423216      73.32099126      75.41411797  T      -5.00000000      -0.08930063      -0.20246786       0.16052964       4.23128366
Fe      73.32099086      69.10423186      75.41411798  T      -5.00000000      -0.20246565      -0.08930293       0.16052827       4.23127985
Fe      73.27718499      73.27718501      79.78927259  T      -5.00000000      -0.10411680      -0.10411192       1.82387185       4.28741121
Fe      69.08494208      71.25406466      77.47286469  T      -5.00000000      -0.34424132       0.26324454      -0.30309808       3.52273226
Fe      71.25406457      69.08494204      77.47286473  T      -5.00000000       0.26323581      -0.34423432      -0.30309895       3.52273154
O       73.27382307      73.27382302      81.58824686  T       0.00000000       0.02288650       0.02289113      -0.84371436       0.09597260
O       75.34964447      73.38336492      79.52997062  T       0.00000000       0.16382399      -0.11125566       0.13203695       0.27437395
O       69.06483973      71.28002583      75.48152332  T       0.00000000      -0.26947939       0.30574423       0.19230449       0.21673381
O       71.28002564      69.06483965      75.48152342  T       0.00000000       0.30574530      -0.26948777       0.19229937       0.21673352
O       73.38336480      75.34964416      79.52997128  T       0.00000000      -0.11124115       0.16383672       0.13202688       0.27437299
O       73.25835080      69.07279626      77.46133394  T       0.00000000      -0.01596508      -0.17801288      -0.16924623       0.23851791
O       71.14909201      71.14909225      77.58384203  T       0.00000000      -0.28021222      -0.28035229       0.24208549       0.14248513
O       75.35628379      75.35628388      77.57668139  T       0.00000000      -0.08038584      -0.08038817      -0.07339531       0.32972223
O       71.23169141      73.25886860      79.63694370  T       0.00000000      -0.43868744      -0.12835374      -0.08198428       0.26367876
O       69.07279724      73.25835047      77.46133249  T       0.00000000      -0.17811656      -0.01592728      -0.16921529       0.23851728
O       73.25886871      71.23169087      79.63694412  T       0.00000000      -0.12839575      -0.43863869      -0.08208077       0.26367962
O       73.37518737      73.37518782      77.57015740  T       0.00000000      -0.00277959      -0.00283800      -0.06820640       0.31747711
Fe      80.67099681      76.59102033      72.28116571  T       5.00000000      -0.35502791      -0.19237462       0.30164301       4.04220867
Fe      76.59102033      80.67099678      72.28116574  T       5.00000000      -0.19237365      -0.35502759       0.30164415       4.04220915
Fe      78.65717321      78.65717321      74.28630762  T       5.00000000      -0.70218998      -0.70219004       0.83944142       4.04912710
Fe      77.53284203      75.42963599      73.30455963  T      -5.00000000       0.19639122       0.07050576      -0.16378450       4.44766235
Fe      75.42963590      77.53284211      73.30455938  T      -5.00000000       0.07050861       0.19639087      -0.16377872       4.44766235
Fe      77.64894995      77.64894985      71.08609430  T      -5.00000000       0.50284028       0.50283515      -1.24946046       4.28414631
Fe      75.42927748      75.42927763      71.14571870  T      -5.00000000       0.38298202       0.38297629      -0.20008868       4.42475080
O       77.55232973      77.55232988      69.22781640  T       0.00000000      -0.05157388      -0.05157212       0.66245025       0.07879785
O       75.46825879      77.44200223      71.28849158  T       0.00000000      -0.11107585      -0.02530414       0.01414180       0.29567423
O       77.44200294      75.46825835      71.28849159  T       0.00000000      -0.02531591      -0.11106306       0.01415217       0.29567429
O       77.51208810      81.74112047      73.38459858  T       0.00000000       0.17618839       0.61664754       0.18791042       0.30655393
O       79.60155377      79.60155428      73.34414593  T       0.00000000       0.59456974       0.59462720      -0.39478567       0.10896641
O       75.45587382      75.45587382      73.27446319  F       0.00000000       0.20110390       0.20110737      -0.36927685       0.32425180
O       79.56101392      77.46758341      71.20858983  T       0.00000000      -0.07763916      -0.29817379      -0.23504502       0.25779143
O       81.74112077      77.51208845      73.38459796  T       0.00000000       0.61667573       0.17615993       0.18791096       0.30655384
O       77.46758355      79.56101379      71.20858999  T       0.00000000      -0.29816994      -0.07763518      -0.23504680       0.25779119
O       77.42564994      77.42565038      73.25357686  T       0.00000000       0.05999202       0.06000013      -0.05673346       0.28688014
Fe      72.26070963      76.47332248      72.26070962  T       5.00000000       0.05310710       0.19676986       0.05310316       4.36467743
Fe      74.34162089      78.55855219      70.15998680  T       5.00000000       0.17069349      -0.28274667       0.13495858       4.06465197
Fe      70.15998643      78.55855191      74.34162099  T       5.00000000       0.13498068      -0.28275260       0.17069703       4.06466103
Fe      71.27208398      79.63324261      71.27208382  T      -5.00000000       0.50675583       0.22689891       0.50678146       3.58233142
Fe      73.32099035      75.41411830      69.10423192  T      -5.00000000      -0.20247009       0.16052300      -0.08930153       4.23128319
Fe      69.10423204      75.41411815      73.32099077  T      -5.00000000      -0.08929926       0.16053221      -0.20246783       4.23127985
Fe      69.08494198      77.47286447      71.25406420  T      -5.00000000      -0.34424597      -0.30306977       0.26322275       3.52274299
Fe      73.27718591      79.78927293      73.27718530  T      -5.00000000      -0.10412018       1.82384503      -0.10412081       4.28741026
Fe      71.25406445      77.47286464      69.08494219  T      -5.00000000       0.26324418      -0.30310559      -0.34423658       3.52273202
O       73.27382283      81.58824678      73.27382324  T       0.00000000       0.02286118      -0.84367228       0.02288578       0.09597377
O       71.28002609      75.48152348      69.06484024  T       0.00000000       0.30581176       0.19230324      -0.26941195       0.21673328
O       73.38336592      79.52997127      75.34964404  T       0.00000000      -0.11125161       0.13207874       0.16382879       0.27437395
O       75.34964527      79.52996874      73.38336533  T       0.00000000       0.16388211       0.13214138      -0.11123988       0.27437347
O       69.06484068      75.48152445      71.28002589  T       0.00000000      -0.26941651       0.19225949       0.30578339       0.21673283
O       73.25835046      77.46133294      69.07279699  T       0.00000000      -0.01593936      -0.16921286      -0.17812046       0.23851711
O       71.23169126      79.63694409      73.25886877  T       0.00000000      -0.43865508      -0.08207470      -0.12840199       0.26367977
O       75.35628357      77.57668140      75.35628351  T       0.00000000      -0.08042403      -0.07341060      -0.08036129       0.32972166
O       71.14909142      77.58384228      71.14909227  T       0.00000000      -0.28033727       0.24208058      -0.28022560       0.14248523
O       73.37518721      77.57015746      73.37518777  T       0.00000000      -0.00282617      -0.06821379      -0.00281617       0.31747350
O       73.25886771      79.63694260      71.23169079  T       0.00000000      -0.12835068      -0.08199480      -0.43865404       0.26367819
O       69.07279660      77.46133367      73.25835028  T       0.00000000      -0.17802095      -0.16924545      -0.01593876       0.23851883
Fe      78.55855198      74.34162088      70.15998696  T       5.00000000      -0.28276613       0.17065853       0.13492918       4.06464624
Fe      76.47332270      72.26070946      72.26070961  T       5.00000000       0.19678405       0.05308893       0.05309413       4.36467743
Fe      78.55855195      70.15998633      74.34162084  T       5.00000000      -0.28275904       0.13496038       0.17067036       4.06465626
Fe      79.63324280      71.27208390      71.27208382  T      -5.00000000       0.22687963       0.50676095       0.50678897       3.58233166
Fe      75.41411808      69.10423216      73.32099052  T      -5.00000000       0.16055115      -0.08929348      -0.20248902       4.23127985
Fe      75.41411841      73.32099039      69.10423187  T      -5.00000000       0.16054755      -0.20246187      -0.08930904       4.23128319
Fe      77.47286443      69.08494195      71.25406424  T      -5.00000000      -0.30308914      -0.34422874       0.26323155       3.52274227
Fe      77.47286458      71.25406485      69.08494240  T      -5.00000000      -0.30305853       0.26322788      -0.34423688       3.52275348
Fe      79.78927296      73.27718577      73.27718530  T      -5.00000000       1.82383668      -0.10413489      -0.10413363       4.28741121
O       81.58824669      73.27382288      73.27382333  T       0.00000000      -0.84367239       0.02286783       0.02288742       0.09597385
O       79.52996910      75.34964480      73.38336513  T       0.00000000       0.13214833       0.16385755      -0.11125277       0.27437347
O       75.48152325      69.06483940      71.28002623  T       0.00000000       0.19228414      -0.26942176       0.30580902       0.21673375
O       75.48152362      71.28002606      69.06483976  T       0.00000000       0.19224307       0.30580175      -0.26938584       0.21673387
O       79.52997146      73.38336656      75.34964394  T       0.00000000       0.13208020      -0.11126406       0.16381463       0.27437344
O       77.57015651      73.37518812      73.37518793  T       0.00000000      -0.06819773      -0.00283855      -0.00281593       0.31747350
O       79.63694446      71.23169043      73.25886863  T       0.00000000      -0.08206460      -0.43862745      -0.12840843       0.26367941
O       79.63694305      73.25886801      71.23169040  T       0.00000000      -0.08198005      -0.12834579      -0.43863401       0.26367772
O       77.46133258      73.25834923      69.07279820  T       0.00000000      -0.16919988      -0.01594211      -0.17804030       0.23851699
O       77.58384346      71.14909342      71.14909194  T       0.00000000       0.24207041      -0.28031003      -0.28026146       0.14248621
O       77.57668164      75.35628301      75.35628418  T       0.00000000      -0.07341395      -0.08042367      -0.08036949       0.32972154
O       77.46133361      69.07279710      73.25834971  T       0.00000000      -0.16928449      -0.17797396      -0.01594938       0.23851699
Fe      74.36516819      74.36516819      74.36516819  F       5.00000000      -0.13616231      -0.13617212      -0.13618207       4.36899948
Fe      70.15641790      74.40720427      70.15641780  T       5.00000000       0.02553503       0.15792455       0.02555497       3.95574045
Fe      74.40720416      70.15641759      70.15641803  T       5.00000000       0.15792841       0.02554840       0.02554098       3.95574045
Fe      70.15641794      70.15641792      74.40720421  T       5.00000000       0.02554350       0.02554243       0.15789813       3.95574617
Fe      71.21027317      71.21027308      71.21027318  T      -5.00000000      -0.10422819      -0.10422925      -0.10422859       3.58218980
Fe      73.31637204      73.31637190      71.15495818  T      -5.00000000      -0.16921192      -0.16920415      -0.14421648       4.42403078
Fe      73.31637186      71.15495777      73.31637167  T      -5.00000000      -0.16919649      -0.14422545      -0.16919419       4.42402983
Fe      71.15495790      73.31637175      73.31637191  T      -5.00000000      -0.14421359      -0.16920137      -0.16919671       4.42403078
O       73.24741391      73.24741409      73.24741397  T       0.00000000      -0.15733829      -0.15734422      -0.15733936       0.32064545
O       71.17633634      75.35757782      73.37223963  T       0.00000000       0.04143530      -0.01777393      -0.03225005       0.32984439
O       75.35757847      73.37223987      71.17633482  T       0.00000000      -0.01782346      -0.03225942       0.04143775       0.32984459
O       73.37223998      71.17633674      75.35757738  T       0.00000000      -0.03221901       0.04148066      -0.01778337       0.32984465
O       75.35757809      71.17633609      73.37223998  T       0.00000000      -0.01777233       0.04139715      -0.03226539       0.32984462
O       71.17633531      73.37223970      75.35757855  T       0.00000000       0.04150313      -0.03221149      -0.01781602       0.32984504
O       73.37223939      75.35757858      71.17633464  T       0.00000000      -0.03224635      -0.01781273       0.04143715       0.32984525
O       69.19233371      73.41074297      73.41074273  T       0.00000000      -0.01123816       0.31581470       0.31580946       0.33642319
O       71.27353649      71.27353617      73.22416248  T       0.00000000      -0.06628558      -0.06628711      -0.22221351       0.23953202
O       75.30446963      69.19502733      75.30446969  T       0.00000000      -0.42364380      -0.17101331      -0.42365879       0.32425380
O       75.30446966      75.30446990      69.19502669  T       0.00000000      -0.42367420      -0.42367533      -0.17093670       0.32425424
O       71.27353607      73.22416262      71.27353685  T       0.00000000      -0.06629422      -0.22222871      -0.06628586       0.23953140
O       73.41074324      69.19233375      73.41074312  T       0.00000000       0.31580988      -0.01123693       0.31580606       0.33642441
O       73.22416215      71.27353642      71.27353641  T       0.00000000      -0.22221409      -0.06627926      -0.06628513       0.23953149
O       69.19502740      75.30447015      75.30446982  T       0.00000000      -0.17100878      -0.42364973      -0.42365131       0.32425398
O       73.41074329      73.41074312      69.19233364  T       0.00000000       0.31583169       0.31581071      -0.01124417       0.33642173
Au      60.74573046      68.89448794      74.99998518  T       0.00000000       0.22673731       0.12829709      -0.00052362       0.01214890
Au      60.72650384      70.92380614      72.96591790  T       0.00000000       0.02823143       0.05187044       0.04070911       0.00693330
Au      60.72650367      72.96591769      70.92380618  T       0.00000000       0.02822921       0.04071896       0.05188423       0.00693320
Au      60.72653667      70.92383636      77.03403855  T       0.00000000       0.02836301       0.05264854      -0.04095769       0.00693104
Au      60.71111256      72.95666148      75.00001175  T       0.00000000      -0.12063739      -0.00548622       0.00000127       0.00131129
Au      60.72649916      72.96598452      79.07618676  T       0.00000000       0.02841805       0.04200356      -0.05202604       0.00693074
Au      60.74573046      74.99998521      68.89448787  T       0.00000000       0.22673047      -0.00051779       0.12828675       0.01214896
Au      60.71111241      75.00001165      72.95666164  T       0.00000000      -0.12064093      -0.00001462      -0.00549123       0.00131142
Au      60.72653649      77.03403841      70.92383611  T       0.00000000       0.02836036      -0.04095386       0.05265006       0.00693099
Au      60.71119311      74.99999570      77.04335407  T       0.00000000      -0.11956666       0.00054467       0.00637256       0.00130734
Au      60.71119321      77.04335404      74.99999560  T       0.00000000      -0.11956994       0.00637482       0.00054970       0.00130720
Au      60.74577654      75.00000524      81.10549767  T       0.00000000       0.22818583       0.00024071      -0.12895091       0.01215005
Au      60.72654976      77.03410240      79.07620414  T       0.00000000       0.02967107      -0.04107560      -0.05216582       0.00693533
Au      60.72649909      79.07618689      72.96598479  T       0.00000000       0.02841513      -0.05202429       0.04200196       0.00693078
Au      60.72654970      79.07620408      77.03410265  T       0.00000000       0.02967911      -0.05216920      -0.04106895       0.00693539
Au      60.74577678      81.10549756      75.00000501  T       0.00000000       0.22818217      -0.12893777       0.00023712       0.01215006
Au      64.80720751      64.80720753      70.91774252  T       0.00000000       0.07206465       0.07206668      -0.03671732       0.00676145
Au      64.80421734      64.80421722      74.99996217  T       0.00000000       0.04334262       0.04334186      -0.00027610       0.00581908
Au      64.80714722      64.80714724      79.08223542  T       0.00000000       0.07146509       0.07146129       0.03651216       0.00675453
Au      62.76756685      68.88142204      68.88142223  T       0.00000000       0.05086805       0.00965809       0.00965949       0.00686759
Au      64.78805547      66.83330957      68.87941320  T       0.00000000      -0.07627399      -0.07244899      -0.06420917       0.00127244
Au      64.78805558      68.87941298      66.83330942  T       0.00000000      -0.07626902      -0.06421839      -0.07245104       0.00127243
Au      62.78477173      66.85050856      70.91613716  T       0.00000000       0.23202822       0.09313995      -0.05199569       0.01114953
Au      62.73550319      68.86680131      72.95532831  T       0.00000000      -0.23065974      -0.12608929      -0.08239938       0.00658497
Au      64.78124252      66.82350476      72.95946394  T       0.00000000      -0.16700870      -0.15551028       0.02371506       0.01072928
Au      64.79529987      68.87614513      70.91788751  T       0.00000000      -0.00856443       0.00582328       0.02338380       0.01483712
Au      62.76477649      66.84726374      74.99996108  T       0.00000000       0.05339589       0.06466819      -0.00099073       0.00598815
Au      62.73533402      68.86672324      77.04465687  T       0.00000000      -0.23304632      -0.12633370       0.08220499       0.00657615
Au      64.78083577      66.82329559      77.04046125  T       0.00000000      -0.17109583      -0.15903412      -0.02520208       0.01069501
Au      64.80761801      68.88286435      74.99993640  T       0.00000000       0.08034852       0.04043975      -0.00175198       0.01243231
Au      62.78475654      66.85048773      79.08381953  T       0.00000000       0.22892457       0.09039210       0.05172645       0.01114419
Au      62.76755893      68.88143677      81.11858295  T       0.00000000       0.05029925       0.01042365      -0.00921498       0.00687601
Au      64.78795297      66.83331721      81.12062901  T       0.00000000      -0.07747997      -0.07312088       0.06496102       0.00126971
Au      64.79459001      68.87554608      79.08217321  T       0.00000000      -0.00267991       0.01602152      -0.02148220       0.01520169
Au      64.78803374      68.87947970      83.16668917  T       0.00000000      -0.07688466      -0.06312350       0.07329763       0.00126769
Au      64.80720765      70.91774247      64.80720749  T       0.00000000       0.07205757      -0.03672314       0.07205909       0.00676149
Au      62.78477163      70.91613727      66.85050843  T       0.00000000       0.23201956      -0.05199125       0.09313422       0.01114948
Au      62.73550300      72.95532825      68.86680112  T       0.00000000      -0.23065893      -0.08240582      -0.12611182       0.00658499
Au      64.79529977      70.91788747      68.87614542  T       0.00000000      -0.00855184       0.02338527       0.00582996       0.01483715
Au      64.78124248      72.95946444      66.82350471  T       0.00000000      -0.16700488       0.02372490      -0.15550500       0.01072925
Au      62.73672935      70.91312742      70.91312723  T       0.00000000      -0.22743276      -0.07331873      -0.07329738       0.00758594
Au      62.75007604      72.95840792      72.95840795  T       0.00000000      -0.02977918      -0.00676519      -0.00677275       0.01494846
Au      64.81955255      70.92550901      72.96309827  T       0.00000000       0.18308996       0.05980463       0.03947895       0.00830741
Au      64.81955243      72.96309832      70.92550933  T       0.00000000       0.18310182       0.03947757       0.05981343       0.00830728