568
Lattice="150.0 0.0 0.0 0.0 150.0 0.0 0.0 0.0 150.0" Properties=species:S:1:pos:R:3:move_mask:L:1:initial_magmoms:R:1:forces:R:3:magmoms:R:1 XYZ=T energy=-1967.545654296875 stress="5.038778454036219e-06 5.390750175138237e-07 5.390273827288183e-07 5.390750175138237e-07 5.038749350205762e-06 5.391054855863331e-07 5.390439241637068e-07 5.391131026044604e-07 5.038842573412694e-06" free_energy=-1967.545654296875 pbc="F F F"
Fe      76.61869605      76.61869618      76.61869614  T       5.00000000       0.26596257       0.26598206       0.26603448       4.18738794
Fe      79.67587472      75.37766549      75.37766604  T      -5.00000000      -0.50455368      -0.68775648      -0.68765551       3.95862484
Fe      75.37766590      79.67587580      75.37766585  T      -5.00000000      -0.68764800      -0.50454795      -0.68764335       3.95861959
Fe      75.37766568      75.37766566      79.67587598  T      -5.00000000      -0.68764335      -0.68764186      -0.50453103       3.95861912
O       77.61145179      77.61145175      77.61145174  T       0.00000000      -0.10299772      -0.10300028      -0.10298902       0.18267328
Fe      73.31399973      77.70035656      75.56023870  T      -5.00000000      -0.67538643       0.48844731       0.53709614       4.21843672
Fe      73.31400075      75.56023930      77.70035658  T      -5.00000000      -0.67541617       0.53711402       0.48845065       4.21843433
Fe      71.31479281      75.58538829      75.58538750  T      -5.00000000       0.27611166       0.31893480       0.31907165       4.18680334
O       71.39813659      75.53651800      77.46893542  T       0.00000000       0.06609011      -0.39105183      -0.62327677       0.19086897
O       71.39814207      77.46893839      75.53651642  T       0.00000000       0.06610215      -0.62318599      -0.39109442       0.19087905
O       73.38001319      77.49065733      77.49065844  T       0.00000000       0.22355181      -0.69974422      -0.69965565       0.12205908
O       73.35978354      75.54685627      75.54685597  T       0.00000000       0.04709980      -0.09578741      -0.09587049       0.29002780
Fe      77.70035665      73.31399987      75.56023863  T      -5.00000000       0.48837614      -0.67540634       0.53707063       4.21841812
Fe      75.56023926      73.31400034      77.70035668  T      -5.00000000       0.53710413      -0.67537731       0.48846838       4.21843958
Fe      75.58538784      71.31479349      75.58538770  T      -5.00000000       0.31892115       0.27609742       0.31886381       4.18680668
O       77.46894314      71.39814594      75.53651643  T       0.00000000      -0.62327510       0.06609774      -0.39104679       0.19087327
O       75.53651653      71.39813857      77.46893526  T       0.00000000      -0.39103863       0.06608629      -0.62319839       0.19088086
O       75.54685674      73.35978356      75.54685562  T       0.00000000      -0.09577760       0.04707716      -0.09587941       0.29002684
O       77.49065660      73.38001339      77.49065827  T       0.00000000      -0.69975495       0.22355050      -0.69965577       0.12205479
Fe      72.39417392      72.39417397      76.55544370  T       5.00000000       0.39142030       0.39144501      -0.53371942       4.10258961
O       75.49194542      73.56432292      79.63161048  T       0.00000000       0.69456285       0.02939624       0.31995803       0.29068032
O       73.56432359      75.49194560      79.63161100  T       0.00000000       0.02940416       0.69455516       0.31996340       0.29067966
O       75.44691361      75.44691335      77.68250248  T       0.00000000       0.05071119       0.05069114       0.14526626       0.18702319
O       73.44699135      73.44698987      77.60390966  T       0.00000000       0.21268605       0.21267940      -0.19475022       0.23323393
Fe      77.70035783      75.56023859      73.31399984  T      -5.00000000       0.48840636       0.53709424      -0.67541456       4.21843863
Fe      75.56023867      77.70035809      73.31399989  T      -5.00000000       0.53710437       0.48844135      -0.67538834       4.21843958
Fe      75.58538707      75.58538690      71.31479163  T      -5.00000000       0.31916088       0.31912076       0.27613515       4.18681002
O       75.53651607      77.46893604      71.39813957  T       0.00000000      -0.39107680      -0.62326127       0.06607950       0.19087526
O       77.46893520      75.53651527      71.39813960  T       0.00000000      -0.62328309      -0.39108619       0.06609797       0.19087458
O       75.54685564      75.54685504      73.35978389  T       0.00000000      -0.09587401      -0.09586322       0.04700303       0.29002857
O       77.49065724      77.49065612      73.38001317  T       0.00000000      -0.69969296      -0.69968230       0.22357732       0.12206516
Fe      72.39417418      76.55544374      72.39417374  T       5.00000000       0.39147848      -0.53361595       0.39151010       4.10259247
O       73.56431930      79.63160886      75.49194514  T       0.00000000       0.02942753       0.32000792       0.69452608       0.29067957
O       75.49194403      79.63161139      73.56432177  T       0.00000000       0.69455969       0.31994638       0.02944440       0.29068109
O       75.44691358      77.68250177      75.44691450  T       0.00000000       0.05063260       0.14528053       0.05058799       0.18702406
O       73.44699007      77.60391150      73.44699096  T       0.00000000       0.21264113      -0.19486240       0.21266018       0.23323339
Fe      76.55544345      72.39417420      72.39417346  T       5.00000000      -0.53360641       0.39144772       0.39153087       4.10259199
O       79.63161099      75.49194443      73.56432189  T       0.00000000       0.31998065       0.69451851       0.02950495       0.29068416
O       79.63160542      73.56431514      75.49194476  T       0.00000000       0.32009497       0.02961645       0.69448507       0.29067978
O       77.60391112      73.44699059      73.44699097  T       0.00000000      -0.19485706       0.21265693       0.21269073       0.23323029
O       77.68250189      75.44691320      75.44691445  T       0.00000000       0.14529356       0.05061118       0.05058514       0.18702385
Fe      74.45661715      74.45661715      74.45661715  F       5.00000000       0.22611785       0.22611228       0.22610913       4.42018986
Fe      73.44724038      73.44724023      71.29475143  T      -5.00000000       0.78175867       0.78169930      -0.04040100       3.62685084
Fe      73.44723983      71.29475130      73.44723994  T      -5.00000000       0.78184366      -0.04039994       0.78185046       3.62683511
Fe      71.29475128      73.44723973      73.44723964  T      -5.00000000      -0.04040378       0.78180385       0.78178984       3.62684298
O       73.34137410      73.34137408      73.34137412  T       0.00000000      -0.51170915      -0.51175058      -0.51173496       0.16662112
O       71.26472604      75.44147926      73.44803703  T       0.00000000      -0.06395438      -0.21566416      -0.00265913       0.25289196
O       75.44147922      73.44803818      71.26472678  T       0.00000000      -0.21569958      -0.00264447      -0.06394063       0.25289208
O       73.44803634      71.26472662      75.44147862  T       0.00000000      -0.00259832      -0.06393588      -0.21568197       0.25289324
O       75.44147898      71.26472632      73.44803662  T       0.00000000      -0.21570568      -0.06393453      -0.00261000       0.25289282
O       71.26472635      73.44803522      75.44147806  T       0.00000000      -0.06393128      -0.00268305      -0.21563768       0.25289249
O       73.44803747      75.44147757      71.26472735  T       0.00000000      -0.00268340      -0.21559033      -0.06394290       0.25289148
Au      64.81828758      66.84731132      72.95860142  T       0.00000000       0.26616058       0.12195531      -0.02568584       0.01133886
Au      64.80526599      68.87981894      70.92209167  T       0.00000000       0.07754342       0.00719361       0.01454021       0.00701937
Au      64.81830200      66.84733588      77.04140159  T       0.00000000       0.26692379       0.12298753       0.02564237       0.01133873
Au      64.78446002      68.87390800      75.00001237  T       0.00000000      -0.26416212      -0.08662519       0.00014944       0.00249735
Au      64.80525642      68.87979711      79.07790486  T       0.00000000       0.07673749       0.00621477      -0.01445642       0.00701493
Au      64.80526611      70.92209168      68.87981901  T       0.00000000       0.07755368       0.01454860       0.00718869       0.00701934
Au      64.81828744      72.95860129      66.84731122  T       0.00000000       0.26616800      -0.02568801       0.12196292       0.01133884
Au      62.76485979      72.96407992      72.96407963  T       0.00000000       0.03516284       0.06474818       0.06473803       0.00687365
Au      64.78123327      70.91442732      72.95670216  T       0.00000000      -0.29021519      -0.10551862      -0.07631408       0.00747874
Au      64.78123334      72.95670225      70.91442745  T       0.00000000      -0.29021731      -0.07630096      -0.10552324       0.00747886
Au      62.77658362      70.93231559      74.99999781  T       0.00000000       0.24828637       0.19184059      -0.00020224       0.01195298
Au      62.76485951      72.96408680      77.03592231  T       0.00000000       0.03499287       0.06500840      -0.06500079       0.00687589
Au      64.78119354      70.91436555      77.04330453  T       0.00000000      -0.29118332      -0.10595591       0.07623392       0.00749281
Au      64.78900368      72.95759962      74.99993954  T       0.00000000      -0.08960278      -0.01532525      -0.00022109       0.01481411
Au      64.80524482      70.92208987      81.12020088  T       0.00000000       0.07673549       0.01412473      -0.00658624       0.00701807
Au      64.78119540      72.95668123      79.08563767  T       0.00000000      -0.29141557      -0.07692027       0.10588155       0.00749749
Au      64.81827219      72.95860026      83.15268684  T       0.00000000       0.26528895      -0.02602772      -0.12185018       0.01134017
Au      64.78445970      75.00001249      68.87390796  T       0.00000000      -0.26415834       0.00013856      -0.08661764       0.00249721
Au      64.81830186      77.04140166      66.84733599  T       0.00000000       0.26692009       0.02563365       0.12298005       0.01133870
Au      62.77658377      74.99999778      70.93231573  T       0.00000000       0.24828565      -0.00020984       0.19184247       0.01195306
Au      62.76485970      77.03592227      72.96408688  T       0.00000000       0.03498859      -0.06501043       0.06500603       0.00687580
Au      64.78900368      74.99993958      72.95759955  T       0.00000000      -0.08960839      -0.00022209      -0.01532797       0.01481420
Au      64.78119349      77.04330450      70.91436579  T       0.00000000      -0.29118153       0.07623801      -0.10595521       0.00749287
Au      62.75424747      75.00000243      75.00000255  T       0.00000000      -0.13964847       0.00000633      -0.00000006       0.00101396
Au      62.76485195      77.03591670      77.03591672  T       0.00000000       0.03501661      -0.06472539      -0.06472719       0.00687769
Au      64.78897050      75.00000844      77.04241118  T       0.00000000      -0.09156978      -0.00133738       0.01449049       0.01482323
Au      64.78897074      77.04241130      75.00000824  T       0.00000000      -0.09157647       0.01448667      -0.00133353       0.01482314
Au      62.77657492      74.99999697      79.06769807  T       0.00000000       0.24804424       0.00013438      -0.19156398       0.01195560
Au      64.78442144      75.00001395      81.12614377  T       0.00000000      -0.26570761       0.00049374       0.08697759       0.00249794
Au      64.78131043      77.04331294      79.08566813  T       0.00000000      -0.28903300       0.07682152       0.10682081       0.00750226
Au      64.81827109      77.04140212      83.15267782  T       0.00000000       0.26489627       0.02596419      -0.12168524       0.01133959
Au      64.80525628      79.07790497      68.87979706  T       0.00000000       0.07673598      -0.01444529       0.00621706       0.00701495
Au      64.78119556      79.08563766      72.95668109  T       0.00000000      -0.29141814       0.10587777      -0.07693101       0.00749755
Au      64.80524469      81.12020095      70.92209002  T       0.00000000       0.07673120      -0.00658835       0.01410899       0.00701798
Au      62.77657487      79.06769811      74.99999701  T       0.00000000       0.24804528      -0.19156636       0.00013846       0.01195556
Au      64.78131038      79.08566807      77.04331278  T       0.00000000      -0.28904390       0.10681440       0.07682130       0.00750236
Au      64.78442136      81.12614364      75.00001420  T       0.00000000      -0.26571792       0.08697916       0.00050078       0.00249779
Au      64.80523748      79.07790079      81.12022139  T       0.00000000       0.07608925      -0.01454647      -0.00592415       0.00701676
Au      64.80523741      81.12022150      79.07790081  T       0.00000000       0.07610629      -0.00592165      -0.01454541       0.00701678
Au      64.81827211      83.15268699      72.95860010  T       0.00000000       0.26528895      -0.12183926      -0.02602665       0.01134013
Au      64.81827124      83.15267776      77.04140217  T       0.00000000       0.26489478      -0.12168288       0.02596112       0.01133965
Au      66.84731125      64.81828749      72.95860134  T       0.00000000       0.12195964       0.26616424      -0.02568631       0.01133892
Au      68.87981898      64.80526601      70.92209165  T       0.00000000       0.00719486       0.07754241       0.01453762       0.00701945
Au      66.84733591      64.81830193      77.04140160  T       0.00000000       0.12298633       0.26692525       0.02563401       0.01133874
Au      68.87390796      64.78445996      75.00001242  T       0.00000000      -0.08662603      -0.26416087       0.00014758       0.00249736
Au      68.87979702      64.80525634      79.07790498  T       0.00000000       0.00621603       0.07673755      -0.01445651       0.00701495
Au      66.83169615      68.87658756      68.87658770  T       0.00000000      -0.11527257      -0.06850636      -0.06852577       0.00125584
Au      68.87658764      66.83169616      68.87658778  T       0.00000000      -0.06850701      -0.11527203      -0.06852222       0.00125580
Au      68.87658766      68.87658758      66.83169600  T       0.00000000      -0.06852272      -0.06852707      -0.11525753       0.00125578
Au      66.83105791      66.83105794      70.91985561  T       0.00000000      -0.13554777      -0.13554689      -0.06942362       0.00134414
Au      66.83009335      68.87585258      72.95690542  T       0.00000000      -0.11446843      -0.03406135      -0.01169224       0.01569805
Au      68.87585251      66.83009342      72.95690541  T       0.00000000      -0.03406407      -0.11446900      -0.01169085       0.01569811
Au      68.88521163      68.88521156      70.91871751  T       0.00000000       0.07349386       0.07349452      -0.00743382       0.01319414
Au      66.82201799      66.82201807      75.00002902  T       0.00000000      -0.25992027      -0.25992402       0.00048904       0.01064554
Au      66.83030615      68.87599388      77.04313351  T       0.00000000      -0.11464506      -0.03524570       0.01152055       0.01574939
Au      68.87599388      66.83030620      77.04313341  T       0.00000000      -0.03524457      -0.11464686       0.01152001       0.01574937
Au      68.89176460      68.89176470      75.00007434  T       0.00000000       0.18014959       0.18014887      -0.00473190       0.01179187
Au      66.83111295      66.83111293      79.08012174  T       0.00000000      -0.13479152      -0.13479166       0.06905393       0.00135367
Au      66.83173424      68.87656921      81.12338215  T       0.00000000      -0.11485498      -0.06966504       0.06829929       0.00126421
Au      68.87656919      66.83173418      81.12338233  T       0.00000000      -0.06966966      -0.11485381       0.06830125       0.00126424
Au      68.88531671      68.88531698      79.08100575  T       0.00000000       0.07315348       0.07315210       0.00896182       0.01332124
Au      68.87654550      68.87654551      83.16832853  T       0.00000000      -0.07034548      -0.07034151       0.11635397       0.00126235
Au      66.84731143      72.95860137      64.81828753  T       0.00000000       0.12196016      -0.02568188       0.26616558       0.01133889
Au      68.87981889      70.92209172      64.80526603  T       0.00000000       0.00719273       0.01455133       0.07754123       0.00701936
Au      66.83105806      70.91985567      66.83105795  T       0.00000000      -0.13554668      -0.06942923      -0.13552803       0.00134410
Au      66.83009357      72.95690501      68.87585274  T       0.00000000      -0.11448276      -0.01169773      -0.03406562       0.01569819
Au      68.88521149      70.91871783      68.88521148  T       0.00000000       0.07348692      -0.00743794       0.07348919       0.01319414
Au      68.87585250      72.95690505      66.83009355  T       0.00000000      -0.03406835      -0.01169124      -0.11447544       0.01569808
Au      66.83557233      70.91828284      70.91828257  T       0.00000000      -0.06591763       0.00016323       0.00016105       0.01501179
Au      66.85207353      72.96369178      72.96369175  T       0.00000000       0.18817240       0.06049769       0.06049841       0.00821745
Au      68.89157184      70.92726985      72.95967113  T       0.00000000       0.19210084       0.11630787      -0.01568338       0.00361772
Au      68.89157179      72.95967104      70.92726974  T       0.00000000       0.19210544      -0.01568191       0.11630873       0.00361782
Au      66.84629852      70.92579302      74.99999054  T       0.00000000       0.08779606       0.08800238      -0.00135626       0.01248398
Au      66.85314429      72.96371136      77.03600333  T       0.00000000       0.21140915       0.06099024      -0.06476584       0.00851473
Au      68.88845154      70.92381229      77.04123457  T       0.00000000       0.14561732       0.06856323       0.03180135       0.00217132
Au      66.83549831      70.91800575      79.08178259  T       0.00000000      -0.06980475      -0.00291355       0.00290722       0.01507351
Au      66.83016597      72.95693984      81.12414731  T       0.00000000      -0.11810401      -0.01566648       0.03559716       0.01578555
Au      68.88507630      70.91850852      81.11491879  T       0.00000000       0.06752643      -0.01429451      -0.07116043       0.01328821
Au      68.89036754      72.96030886      79.07453295  T       0.00000000       0.16873085      -0.01269322      -0.09127734       0.00043401
Au      66.83104005      70.91984631      83.16896128  T       0.00000000      -0.13651671      -0.07017233       0.13625437       0.00134823
Au      66.84732001      72.95860092      85.18172996  T       0.00000000       0.12180932      -0.02591844      -0.26515490       0.01134101
Au      68.87975054      70.92205797      85.19478365  T       0.00000000       0.00547083       0.01376147      -0.07560150       0.00702083
Au      68.87584229      72.95697271      83.16980387  T       0.00000000      -0.03807768      -0.01461256       0.12064446       0.01579440
Au      66.84733580      77.04140150      64.81830182  T       0.00000000       0.12297590       0.02562387       0.26690993       0.01133868
Au      68.87390788      75.00001247      64.78445991  T       0.00000000      -0.08662497       0.00014147      -0.26415846       0.00249714
Au      66.82201819      75.00002909      66.82201792  T       0.00000000      -0.25991875       0.00048605      -0.25992060       0.01064551
Au      66.83030638      77.04313338      68.87599387  T       0.00000000      -0.11465034       0.01149831      -0.03524254       0.01574939
Au      68.89176450      75.00007461      68.89176466  T       0.00000000       0.18015361      -0.00472829       0.18014731       0.01179177
Au      68.87599387      77.04313343      66.83030629  T       0.00000000      -0.03523096       0.01151606      -0.11464720       0.01574942
Au      66.84629854      74.99999041      70.92579314  T       0.00000000       0.08778996      -0.00136301       0.08800217       0.01248406
Au      66.85314403      77.03600326      72.96371140  T       0.00000000       0.21141016      -0.06476320       0.06099401       0.00851491
Au      68.88845145      77.04123451      70.92381237  T       0.00000000       0.14561935       0.03179703       0.06857163       0.00217126
Au      66.85109826      74.99981818      74.99981796  T       0.00000000       0.16977201      -0.00216674      -0.00216606       0.00180902
Au      66.85369542      77.03594844      77.03594841  T       0.00000000       0.22772448      -0.06349952      -0.06350675       0.00914752
Au      66.84635527      74.99997375      79.07409559  T       0.00000000       0.08905329       0.00045051      -0.09097778       0.01255348
Au      66.83024430      77.04307703      81.12424002  T       0.00000000      -0.11279893       0.01708744       0.03228208       0.01578704
Au      68.89253476      75.00032471      81.10775358  T       0.00000000       0.19195007       0.01105203      -0.19191842       0.01162924
Au      68.89486567      77.03819292      79.07232907  T       0.00000000       0.22054912       0.01077968      -0.10550448       0.00116043
Au      66.82201883      75.00004674      83.17798292  T       0.00000000      -0.26194087       0.00097532       0.26242524       0.01066238
Au      66.84733603      77.04140043      85.18172132  T       0.00000000       0.12274615       0.02603675      -0.26578382       0.01134156
Au      68.87380943      75.00006190      85.21562784  T       0.00000000      -0.08583569       0.00124414       0.26439089       0.00249581
Au      68.87605313      77.04306569      83.16944918  T       0.00000000      -0.03149049       0.01677704       0.10998951       0.01580581
Au      68.87979710      79.07790490      64.80525630  T       0.00000000       0.00624576      -0.01444363       0.07672868       0.00701500
Au      66.83111298      79.08012183      66.83111309  T       0.00000000      -0.13481960       0.06905974      -0.13479245       0.00135361
Au      66.83173446      81.12338228      68.87656893  T       0.00000000      -0.11487022       0.06830745      -0.06965310       0.00126399
Au      68.88531656      79.08100582      68.88531678  T       0.00000000       0.07319293       0.00897235       0.07314575       0.01332116
Au      68.87656894      81.12338230      66.83173437  T       0.00000000      -0.06964733       0.06831764      -0.11485288       0.00126426
Au      66.83549822      79.08178237      70.91800599  T       0.00000000      -0.06980797       0.00290453      -0.00290491       0.01507354
Au      66.83016608      81.12414722      72.95693955  T       0.00000000      -0.11808667       0.03559126      -0.01565002       0.01578563
Au      68.89036768      79.07453299      72.96030880  T       0.00000000       0.16871296      -0.09127214      -0.01268245       0.00043404
Au      68.88507627      81.11491888      70.91850868  T       0.00000000       0.06752948      -0.07115936      -0.01429216       0.01328816
Au      66.84635499      79.07409538      74.99997363  T       0.00000000       0.08910159      -0.09095947       0.00044835       0.01255366
Au      66.83024407      81.12424026      77.04307698  T       0.00000000      -0.11279014       0.03227165       0.01708926       0.01578707
Au      68.89486574      79.07232902      77.03819304  T       0.00000000       0.22053750      -0.10548992       0.01077302       0.00116037
Au      68.89253476      81.10775357      75.00032457  T       0.00000000       0.19192445      -0.19194865       0.01105231       0.01162913
Au      66.83521311      79.08204856      79.08204878  T       0.00000000      -0.06333120       0.00271873       0.00270066       0.01508737
Au      66.83170310      81.12342193      81.12342190  T       0.00000000      -0.11380637       0.06868056       0.06866311       0.00126283
Au      68.88564537      79.08108372      81.11465802  T       0.00000000       0.08007704       0.00016876      -0.07984766       0.01333100
Au      68.88564550      81.11465800      79.08108379  T       0.00000000       0.08006078      -0.07985981       0.00016594       0.01333098
Au      66.83108359      79.08010814      83.16892986  T       0.00000000      -0.13411872       0.06935298       0.13497417       0.00135103
Au      68.87981157      79.07787482      85.19473352  T       0.00000000       0.00728449      -0.01486060      -0.07819544       0.00701821
Au      68.87660229      81.12341888      83.16828246  T       0.00000000      -0.06748668       0.06815633       0.11413220       0.00126135
Au      68.87654544      83.16832843      68.87654555  T       0.00000000      -0.07033895       0.11635682      -0.07035089       0.00126244
Au      66.83104024      83.16896127      70.91984654  T       0.00000000      -0.13651298       0.13626045      -0.07017310       0.00134833
Au      66.84732019      85.18172973      72.95860078  T       0.00000000       0.12181288      -0.26516178      -0.02591748       0.01134104
Au      68.87584205      83.16980401      72.95697263  T       0.00000000      -0.03809178       0.12064131      -0.01461587       0.01579440
Au      68.87975024      85.19478363      70.92205824  T       0.00000000       0.00546898      -0.07559688       0.01376184       0.00702098
Au      66.82201884      83.17798276      75.00004678  T       0.00000000      -0.26193863       0.26243109       0.00097568       0.01066226
Au      66.84733584      85.18172153      77.04140044  T       0.00000000       0.12274858      -0.26578942       0.02602898       0.01134157
Au      68.87605324      83.16944911      77.04306594  T       0.00000000      -0.03149678       0.10999751       0.01677096       0.01580581
Au      68.87380947      85.21562805      75.00006177  T       0.00000000      -0.08584381       0.26439318       0.00124484       0.00249600
Au      66.83108351      83.16892978      79.08010808  T       0.00000000      -0.13412830       0.13495363       0.06936222       0.00135101
Au      68.87660229      83.16828256      81.12341895  T       0.00000000      -0.06748968       0.11412869       0.06816741       0.00126128
Au      68.87981162      85.19473340      79.07787471  T       0.00000000       0.00728548      -0.07818905      -0.01486390       0.00701827
Au      70.92209167      64.80526597      68.87981907  T       0.00000000       0.01455347       0.07755753       0.00719373       0.00701937
Au      72.95860135      64.81828751      66.84731118  T       0.00000000      -0.02569194       0.26617247       0.12196849       0.01133889
Au      70.91442740      64.78123332      72.95670225  T       0.00000000      -0.10551930      -0.29021382      -0.07631762       0.00747880
Au      72.96407975      62.76485948      72.96407961  T       0.00000000       0.06475295       0.03516398       0.06474273       0.00687364
Au      72.95670220      64.78123341      70.91442723  T       0.00000000      -0.07631622      -0.29020762      -0.10552390       0.00747886
Au      70.93231568      62.77658374      74.99999787  T       0.00000000       0.19183326       0.24828038      -0.00019558       0.01195298
Au      70.91436577      64.78119335      77.04330441  T       0.00000000      -0.10595635      -0.29118282       0.07623682       0.00749286
Au      72.96408675      62.76485966      77.03592228  T       0.00000000       0.06500645       0.03499285      -0.06500240       0.00687589
Au      72.95759957      64.78900383      74.99993979  T       0.00000000      -0.01532257      -0.08960575      -0.00022051       0.01481414
Au      70.92208999      64.80524496      81.12020098  T       0.00000000       0.01412456       0.07673344      -0.00658545       0.00701797
Au      72.95668127      64.78119546      79.08563757  T       0.00000000      -0.07692046      -0.29141781       0.10587969       0.00749746
Au      72.95860004      64.81827199      83.15268694  T       0.00000000      -0.02603480       0.26530132      -0.12185282       0.01134016
Au      70.92209152      68.87981895      64.80526592  T       0.00000000       0.01454923       0.00719271       0.07754529       0.00701925
Au      72.95860143      66.84731133      64.81828752  T       0.00000000      -0.02569026       0.12196560       0.26616779       0.01133892
Au      70.91985560      66.83105799      66.83105791  T       0.00000000      -0.06941256      -0.13555305      -0.13553758       0.00134411
Au      70.91871771      68.88521140      68.88521163  T       0.00000000      -0.00743908       0.07348754       0.07348970       0.01319422
Au      72.95690512      66.83009360      68.87585281  T       0.00000000      -0.01170421      -0.11448594      -0.03406822       0.01569819
Au      72.95690524      68.87585253      66.83009346  T       0.00000000      -0.01169208      -0.03407007      -0.11447612       0.01569825
Au      70.91828281      66.83557229      70.91828250  T       0.00000000       0.00016844      -0.06592479       0.00015947       0.01501155
Au      70.92726993      68.89157194      72.95967117  T       0.00000000       0.11630648       0.19210139      -0.01568260       0.00361776
Au      72.96369180      66.85207356      72.96369189  T       0.00000000       0.06049638       0.18816981       0.06049389       0.00821736
Au      72.95967108      68.89157176      70.92726982  T       0.00000000      -0.01568188       0.19210589       0.11630887       0.00361773