568
Lattice="150.0 0.0 0.0 0.0 150.0 0.0 0.0 0.0 150.0" Properties=species:S:1:pos:R:3:move_mask:L:1:initial_magmoms:R:1:momenta:R:3:forces:R:3:magmoms:R:1 XYZ=T energy=-1938.0567626953125 stress="2.5467925297562033e-06 2.123059402947547e-06 5.147033334651496e-06 2.1229639060038608e-06 4.281709152564872e-06 4.502989668253576e-06 5.146970124769723e-06 4.502953743212856e-06 1.3860946637578309e-05" free_energy=-1938.0567626953125 pbc="F F F"
Fe      76.03564457      75.55097218      77.04460836  T       5.00000000       0.73094303       0.67374497      -0.33471647      -0.62895495       0.81056839      -0.81897730       4.25255060
Fe      78.59613585      74.66371963      74.81538968  T      -5.00000000      -1.47024952      -0.34831132       2.09091728      -0.26561150       0.20271513       0.61157650       4.06038523
Fe      76.89371332      77.02897191      73.97635728  T      -5.00000000       0.42569310       2.50467877      -0.20661585      -0.08735330       0.08481538       0.60611141       4.24931479
Fe      73.76791987      74.41114693      79.63241312  T      -5.00000000      -1.62692869       0.81064423      -0.44556569       0.83512747      -0.52758312      -0.09874493       4.04694986
O       75.51627286      77.42667341      77.55386191  T       0.00000000      -1.35067000      -0.65712152      -1.70862623      -0.06395316      -0.44446224      -0.50594288       0.21585530
Fe      74.20549883      77.71841340      75.96971103  T      -5.00000000      -0.46297538       0.52330194      -0.41338916       0.44093397       0.04408397      -0.21031475       4.21173048
Fe      72.41380655      75.61554309      77.42084994  T      -5.00000000       0.07299165      -1.53486254      -1.47211081       0.07267356       1.17553043       0.47816977       4.24848175
Fe      71.07792995      77.24241718      75.62583141  T      -5.00000000      -1.55080100       0.18057286      -0.79033638       0.92498881       0.54449940       0.55894715       3.97995710
O       70.53431502      76.07018439      77.07271869  T       0.00000000       0.36526385       0.40861812      -0.21602765       0.27795058      -0.35927171      -0.03955787       0.15396085
O       72.57626904      78.02706485      74.62571679  T       0.00000000      -1.09171941      -1.03793282      -1.52487757      -0.10904902      -0.20143518      -0.60268891       0.26980054
O       72.71750486      77.54561321      77.05495083  T       0.00000000      -0.60217929      -0.09292977      -0.67066202      -1.19909120      -0.51328170       0.31514919       0.26984406
O       73.04677376      75.23559581      73.15186305  T       0.00000000       0.49016001       0.12614053      -0.72577829       0.81494761      -1.17728436      -0.13740964       0.30435532
Fe      77.18425972      72.35488588      75.75312171  T      -5.00000000       0.98227618      -1.54433026       0.86451931      -0.24236996       0.14189875       1.08947003       4.24837255
Fe      74.82886467      72.81350003      77.64546296  T      -5.00000000      -0.44391371      -1.72906636      -2.24932234       0.34317392      -0.16553438       0.44872054       4.33589983
Fe      74.62812536      70.67120928      75.10720831  T      -5.00000000       0.39747384       0.88072421      -0.78900243      -0.32413635      -0.42778215       0.42018560       3.89771748
O       76.53868498      70.76532901      74.85281015  T       0.00000000       1.10231634      -1.77554670       1.29241363       0.64290929       0.45975667       0.31376636       0.18006018
O       73.71922045      71.28484634      76.71231086  T       0.00000000       1.56174023       1.22891726      -1.08333017       0.46993139       0.43264699       0.13073385       0.15637584
O       75.66219053      73.68406604      76.02082009  T       0.00000000       0.24416524       0.07515453      -0.16973708       0.39068541      -0.57331157      -0.19974530       0.32372677
O       76.49208851      71.81639609      77.69339415  T       0.00000000       0.29293067      -0.32450315      -0.62742901      -0.07333897       0.25105804      -0.67442524       0.17825052
Fe      72.25587436      72.43146719      76.25814795  T       5.00000000       1.27788446      -1.39589674       1.83887782       0.06812930       0.00462157       0.69003540       4.03394270
O       74.43181440      72.60248051      79.76208233  T       0.00000000      -1.79662618      -0.49852687      -0.02636013      -0.32540324      -0.28745860      -0.06552339       0.06791328
O       72.85745625      75.97963067      79.34559328  T       0.00000000       0.56702127       0.62314694      -0.02281834      -0.57125986       0.56283051      -0.32265633       0.12547985
O       75.40205164      74.62215676      78.52993911  T       0.00000000       0.76541199       0.21403400      -0.69362229       0.12447065      -0.10162114       0.13500383       0.32399362
O       72.95411612      73.83539519      77.78648041  T       0.00000000      -0.70941790      -1.18913676      -1.05689426      -0.26140457      -0.86189622      -0.64595151       0.24090305
Fe      77.23251811      74.37122704      72.17845937  T      -5.00000000      -1.54875964       2.32364404       2.13346702       0.58960623       0.44670549       1.07285476       4.17884874
Fe      75.39855706      76.45772612      71.49039512  T      -5.00000000      -3.60634306      -2.96095609       0.21744672      -1.20626748       0.72874421       0.29247534       4.26559305
Fe      75.25998400      73.81338590      70.48096374  T      -5.00000000       2.53056233      -1.53479671       1.11746547      -1.03491116      -0.65918320      -0.49369669       4.00126600
O       74.05393128      75.32438457      70.38682007  T       0.00000000      -0.00434210      -0.82047399      -0.55910007       0.77806407       0.21477202       0.09055839       0.27292752
O       76.43682372      72.76979078      71.57054067  T       0.00000000       0.31064752      -1.22030759       1.15210507       0.14252180       0.13518900      -0.89475811       0.09912260
O       75.84011600      75.47712777      73.34879681  T       0.00000000       0.39957173       0.23788971      -0.25972664      -0.71707201      -0.13020957      -1.33121288       0.31104344
O       76.72826832      75.36920503      70.56619203  T       0.00000000      -1.34088554       0.46739452      -1.30601090      -0.30693531      -0.36771700       0.16214585       0.14470491
Fe      72.24153995      76.98720990      72.98645265  T       5.00000000       1.26266893       0.88820907      -2.79195977       0.52164334       0.49077648       0.00553036       4.27886629
O       75.71320911      78.51392303      74.92278594  T       0.00000000      -0.21465863      -0.47829878      -0.93305082       0.12356646      -1.37200654       0.03473940       0.13641502
O       76.59614696      77.79477226      72.23981050  T       0.00000000       0.15875047      -1.23497821       0.23874932      -0.13705248      -0.48688835      -0.07659240       0.11964720
O       74.30220046      75.73679029      75.75867894  T       0.00000000      -0.21372681      -0.14667692       1.74420777      -0.38741416       1.35908782       1.41201389       0.36364749
O       73.77232101      77.60071806      71.88264103  T       0.00000000       0.88623103      -0.75450406      -0.01631485       0.17610869      -0.25538838       0.12608398       0.15624377
Fe      76.41442151      71.72392952      73.09242069  T       5.00000000      -1.68476297       1.11766472       0.02367565       0.10771468      -0.88132441       0.46589878       3.93048668
O       78.39754728      75.56938482      73.07650603  T       0.00000000      -1.15654921      -1.13342537      -0.45036223       0.91056705       0.55329531       0.32846504       0.13957183
O       78.79500405      73.27682703      76.30905056  T       0.00000000       1.25888610       0.13081273      -0.94508785      -0.07495949       0.32693845      -0.41737884       0.12360570
O       77.57388152      73.22573044      73.96276566  T       0.00000000      -2.16963657      -1.17377551       1.85354069      -0.26062274      -0.62172407      -0.26269487       0.21809778
O       77.31078515      76.10599398      75.59812481  T       0.00000000       0.73818489       1.66902151      -0.44873910       0.62671673      -0.46686059       0.38358057       0.28135389
Fe      74.45661715      74.45661715      74.45661715  F       5.00000000       0.00000000       0.00000000       0.00000000       1.07089138       0.54189909      -0.55084348       4.44127321
Fe      72.45918775      74.67000946      71.21651373  T      -5.00000000      -2.11736816      -0.37478224      -0.05526667       0.89676189      -2.16955709       0.37359604       4.23561525
Fe      73.15397613      72.13842266      72.73269464  T      -5.00000000      -0.04010390      -0.22229844       0.79083198      -0.38543260       0.15717947      -1.00524759       3.97399569
Fe      71.45460150      74.22991985      74.08221637  T      -5.00000000       1.13963669      -1.01307602       1.45014210       0.19008842      -1.28706944      -0.89689201       4.28250933
O       71.34783890      73.21042035      72.29982873  T       0.00000000      -0.20637356      -0.44396277       1.61935860       0.67461896       0.64465207       0.61207038       0.18901175
O       70.94199851      75.97568005      74.18041276  T       0.00000000      -0.60436163      -0.67127042      -1.08759630      -1.36535501       1.20751715       0.54661477       0.26276723
O       73.68000110      72.72583004      70.91341488  T       0.00000000       0.68745015      -0.51041146       0.11646997      -0.17913011       1.04225492       0.42142338       0.22252879
O       73.18631155      73.06922419      74.61504808  T       0.00000000      -0.62203277      -2.74476554       0.57956546      -0.73997289      -0.42370671      -0.50551879       0.17556010
O       74.56438726      70.97301622      73.23443137  T       0.00000000      -0.55804974       0.14421474      -0.08446724      -0.42765403       0.02180453      -0.30656415       0.12947333
O       70.71627088      73.28095895      75.56974884  T       0.00000000      -0.38949611      -1.08484107       0.02915509      -0.36405301      -0.09787568      -0.09697209       0.14699806
O       71.35423345      76.08986792      71.38927430  T       0.00000000       0.21305447       0.09639528      -1.13652950      -0.94540697       1.30265927      -0.05222026       0.15526180
Au      64.46655117      67.26880589      72.98534364  T       0.00000000      -3.33335953       1.82955991       1.58255627      -0.99026912      -0.07350688       0.34448549       0.00658390
Au      64.98740307      68.17788571      70.28872395  T       0.00000000       2.95025226      -0.14107352       3.61365239      -0.06037157       0.07461988      -0.22438744       0.00824493
Au      65.25797402      65.59957599      76.91543176  T       0.00000000      -0.47190276       0.85599209       1.33910214       0.15548232       0.02830606       0.27651605       0.01140624
Au      63.81210441      67.73243949      75.86808501  T       0.00000000      -3.55335818      -2.23061640      -3.90581701       0.28218389      -0.50870842       0.19804618       0.00656179
Au      64.81081787      67.61306737      78.92191519  T       0.00000000       4.16250492      -0.71999350       2.24922856      -0.13347900       0.18454847       0.02629167       0.00701120
Au      64.47197249      70.16723160      68.18234571  T       0.00000000      -0.37707420       2.48266185      -2.04119665       0.79023921       0.18895157       0.21281847       0.01747137
Au      64.87105347      72.64870543      66.66906135  T       0.00000000      -1.44317906       2.51589798      -4.32985993      -0.16149235       0.17341602       0.14833912       0.01305977
Au      62.16297916      72.26148819      73.59402839  T       0.00000000       1.35664668       0.12368197      -2.35769879      -0.47794798      -0.23997816      -0.13719381       0.00913893
Au      64.31090641      70.01309521      72.51087552  T       0.00000000      -0.83686020      -0.36733285      -4.34969250      -0.41001597       0.20174627       0.05177680       0.00115067
Au      64.71861883      72.62648090      71.73264972  T       0.00000000       0.62395651       4.70956951       0.58083212       0.24869062      -0.64359450      -0.13030188       0.00424895
Au      62.75790471      69.96354622      74.87137632  T       0.00000000      -2.12959245      -0.78504522       0.79351608       0.15153053      -0.02824414       0.16118136       0.00757304
Au      62.38709931      72.37475056      76.43507236  T       0.00000000       0.10209199       1.64013940      -2.83513989       0.37925240      -0.30004436       0.02210691       0.00601548
Au      64.48724674      70.05542733      77.30229419  T       0.00000000       0.79690049      -1.65704063       0.20043511      -0.50806099      -0.06229573       0.50517225       0.00462213
Au      64.62552442      72.17409541      74.56305909  T       0.00000000      -0.78393147       0.35919510      -0.98787425       0.68227291       0.13144296       0.39711714       0.01049432
Au      64.41959408      70.49965928      80.38347147  T       0.00000000      -2.96429373       2.56791165       3.86795857       0.31060538       0.16672681      -0.03209557       0.00703818
Au      63.86295262      72.64512966      78.87865924  T       0.00000000      -2.26324339       2.30283428       1.67308880       0.26338652       0.17119579      -0.17756478       0.00136410
Au      64.61830631      73.12730508      81.97554472  T       0.00000000      -1.36214211       0.55970724      -0.57946821       0.20518717      -0.02704263       0.11194980       0.00784053
Au      64.24742214      74.41182459      69.77406784  T       0.00000000       0.96129828       1.35844478       1.92465620       0.14094940       0.07036433      -1.04799390       0.00529154
Au      65.27511023      76.32173504      68.05026794  T       0.00000000      -0.12792786      -2.25922454       1.86357585       0.18603256       0.04337096      -0.37172991       0.00364451
Au      62.69064692      74.27436573      71.98231556  T       0.00000000      -4.40611016      -1.84599209       3.20463174      -0.77945352       0.95474923       0.52189666       0.00753330
Au      62.58541022      77.26701113      73.33639241  T       0.00000000       3.92668990      -4.56708149      -1.45747716      -0.64597702      -0.07989162       0.35765994       0.00634147
Au      65.29416677      74.91374165      73.38838367  T       0.00000000       1.51306994      -3.47525414       1.83888091      -0.13208678      -0.17263924      -0.00217541       0.00978133
Au      63.94008129      76.64025504      71.22632372  T       0.00000000       2.41585503      -2.00884371      -0.79148272       0.63411772       0.37150705      -0.39008138       0.00025699
Au      62.45312029      74.78246798      74.92342948  T       0.00000000      -0.49796188       2.76046444       1.97792730       0.21297431       0.14375833      -0.78057271       0.00001894
Au      62.32889017      77.30972110      76.27317577  T       0.00000000      -2.54624702      -2.37661759       3.00169299       0.02789771      -0.16780166       0.14258780       0.00891569
Au      64.76152228      74.46112004      76.63092413  T       0.00000000      -0.85117989      -1.66109376      -1.64592542       1.04216802      -0.19886103      -0.50337732       0.01093906
Au      64.75842603      77.16545800      74.86742276  T       0.00000000       7.63991750       0.36645422       2.44522160       0.17038307      -0.67189753      -0.14275935       0.01144403
Au      62.42601303      74.87642009      77.59477725  T       0.00000000       0.73686494       0.14628807      -3.90851771      -0.65393084       0.26579455       1.17278087       0.00886384
Au      64.51319962      75.14124425      79.98503746  T       0.00000000      -0.19747344       2.32476267       2.70415007      -0.05049854      -0.76700497      -0.04249978       0.00066720
Au      64.67293271      77.05125139      78.07197967  T       0.00000000       3.45038464      -2.58408540       1.12138843      -0.09874997      -0.58769530       0.43294820       0.00657597
Au      64.78292410      77.54423244      81.06240147  T       0.00000000       0.28378271      -1.39883017      -1.95524165      -0.50559789       0.73696160      -0.11750735       0.00616503
Au      64.58605619      79.02823108      69.92460440  T       0.00000000      -0.70282800      -0.38672462       1.83348232      -1.51954472      -0.47848308      -1.05923426       0.00580764
Au      64.28038538      79.61449229      72.52525489  T       0.00000000      -3.19968439       0.23777601      -0.69105888      -0.10971329      -0.25555924       0.29531795       0.00124921
Au      65.11821527      81.91234877      71.31363075  T       0.00000000      -0.84941477      -6.31811322       0.70417758      -0.10242850       0.65084040       0.10127120       0.00640887
Au      63.17876614      79.53890125      75.02542299  T       0.00000000      -0.45896482       0.32724554      -0.51510722      -0.75447899       0.82134438      -0.61496270       0.00623977
Au      65.08037989      79.22394694      76.71654905  T       0.00000000      -3.52492381       0.59620707      -0.09536268       0.37915957       0.94533062       0.35671255       0.00821275
Au      65.21511844      81.67489911      74.63614824  T       0.00000000       4.48032151      -1.23972143       3.17730961       0.00675333       0.30291784       0.05081774       0.00205214
Au      64.13696654      80.27322873      79.47318914  T       0.00000000       2.60046122       1.86056535       2.74368052       0.32121384      -0.78856719       0.27618214       0.01160406
Au      64.17814503      81.83739227      77.37033078  T       0.00000000      -3.44775130      -0.96623410       2.94604349       0.29227495       0.29627424      -0.50035137       0.01138026
Au      66.07905099      84.17952838      73.04755416  T       0.00000000       2.44618424       4.39546667      -2.00823850       0.26247728      -0.37041607      -0.43312186       0.00836056
Au      65.94881167      84.30299705      75.67833929  T       0.00000000       0.32413347      -0.93924666      -2.67653849      -0.49704608      -0.02834889       0.82957232       0.00977752
Au      66.34743584      65.42383295      72.38771926  T       0.00000000      -1.63700692       3.33518747      -3.72528106       0.32790285      -0.41435447      -0.23271650       0.00830758
Au      69.16479106      64.44090184      71.24685749  T       0.00000000      -0.85389119      -2.42561009       0.17563405      -0.55105877       0.08492519      -0.39479843       0.00912522
Au      68.08703210      64.17487527      77.22658549  T       0.00000000       4.23269347      -4.11835397      -0.01218273      -0.60695571      -0.50159419      -0.60786390       0.00973947
Au      68.54332318      64.66114433      74.33654684  T       0.00000000       2.91752916      -1.66393072       3.91489804      -0.00929658      -0.44864956       0.48303482       0.00233981
Au      69.56168505      65.04802290      79.42961113  T       0.00000000       2.32438176      -2.22894181      -3.82870928      -0.15475363      -0.20061547      -0.39684764       0.00132003
Au      67.43159010      68.88223897      69.00624529  T       0.00000000      -0.16858004      -3.59334751      -0.24922891       0.17522684      -0.21578231      -0.43204498       0.00500070
Au      68.70681289      66.27386866      67.75587218  T       0.00000000      -1.46353125       1.05448850       2.03628048      -0.26452649       0.78795236      -0.21112715       0.01028521
Au      68.38020702      68.92260267      66.47989165  T       0.00000000       4.33198438      -3.38766944       2.09793476       0.51984966      -0.36793062      -0.08012477       0.00031482
Au      67.37805733      66.38974672      70.10153743  T       0.00000000       4.07860923      -1.38022419      -2.13982904      -0.44427875      -0.10401225       0.21484137       0.00292209
Au      66.65737619      68.62977645      72.45732788  T       0.00000000       3.53350419      -2.08585486       0.71348775       1.32764459       0.02324298      -0.14358285       0.01082946
Au      68.85760389      66.83000206      72.89440364  T       0.00000000      -0.38134887      -3.79999019       1.43462333       0.11673263       0.52365571      -0.17919332       0.01201519
Au      69.69673202      69.66571952      70.62864056  T       0.00000000       2.71826591      -4.35956970       3.29911235      -0.46458396       0.05614954      -0.31659654       0.00626218
Au      66.55679272      66.61186415      74.76193288  T       0.00000000      -1.56392781      -5.86091170      -3.49311342       0.21836743       0.21514297       0.39181063       0.00782010
Au      66.84652715      68.03263673      77.21627007  T       0.00000000       1.18954344       2.64848088       0.92781948      -0.64642209       0.05009697      -0.44641250       0.01202595
Au      69.04556952      66.64887963      76.81250696  T       0.00000000       1.65213159      -3.29272134       6.71247732       0.16961336      -0.19312990      -0.46186659       0.01302052
Au      68.54050069      68.88470622      74.85885416  T       0.00000000      -5.52120383       8.14609597      -3.20866879       0.08235867       0.01075122       0.26337996       0.00898424
Au      67.01003152      65.75371402      79.14357391  T       0.00000000      -5.57998250      -3.14278457       2.99590048      -0.63809180       0.69158888       0.14403334       0.00406581
Au      66.14993319      68.58978238      81.17221608  T       0.00000000      -3.54081704      -5.46139294      -2.99646048       0.27095276      -0.38507071       0.47952273       0.00389382
Au      68.78853805      66.87102196      81.22998813  T       0.00000000      -1.69000535      -0.68253324      -1.34585853      -0.13107024       0.42929107       0.64468306       0.00083652
Au      69.07113350      68.35876732      78.92888334  T       0.00000000       4.91747709      -5.27908012      -4.49322698       0.73324722       0.05081779       0.41559789       0.00907822
Au      67.80932532      68.22906473      83.46696711  T       0.00000000      -0.21617769      -0.57790888      -3.11055162       0.17366201      -0.02865801       0.18317252       0.01020262
Au      67.63198620      73.53090891      63.32440135  T       0.00000000       0.58842100      -3.09342690       5.13550138       0.25181857      -0.08175074       0.24714498       0.01025933
Au      68.19164460      70.51309366      64.22623628  T       0.00000000      -0.08571849      -2.83996914      -2.01524200       0.35270244       0.09151353      -0.41113138       0.00840047
Au      66.15655809      70.44149066      65.93670630  T       0.00000000      -0.58235039       1.74333579       0.62767163      -0.52404058      -0.34980473       0.54929107       0.01028669
Au      66.43062739      73.19352133      68.75101835  T       0.00000000       1.50724527      -4.01264296      -3.36301089       0.02394593      -0.44099921       0.11116730       0.00615978
Au      68.71682801      71.47984559      68.70231318  T       0.00000000      -1.24990545       1.70273080       1.12510888      -0.55982333      -0.36157143       0.22256272       0.00993794
Au      67.84603758      72.64279194      66.16433398  T       0.00000000      -1.52371663      -4.92533893       3.32875358      -0.00309247      -0.81178504       0.40181014       0.01076806
Au      66.31480749      70.66721944      70.53279957  T       0.00000000       2.16287911       0.00125221      -2.79288980      -0.11123987       0.71411026       0.00236674       0.00609910
Au      67.18980847      72.78460936      72.71019808  T       0.00000000      -0.38758850      -1.26701609       0.19036211       0.30854851      -0.03425417       0.53046012       0.00399253
Au      69.15390885      70.79945568      72.94046224  T       0.00000000      -5.52710006      -0.14528661       0.80458129      -0.60032022       0.54919821       0.34253839       0.00005515
Au      69.35954518      73.01078698      71.03993694  T       0.00000000      -1.24652289      -1.36901738      -0.64536683       0.08827741      -0.06078829      -0.13755336       0.00024831
Au      65.79957002      69.45688195      74.99463976  T       0.00000000       3.03154000       3.36785102       0.12638935      -0.02023089       0.36566660      -0.31283107       0.01079550
Au      66.25154025      71.96199664      76.96645001  T       0.00000000      -2.47969463      -3.99615354      -1.79139403       0.45956782       0.53631389      -0.09439937       0.00753519
Au      68.85004694      71.95474416      75.58233542  T       0.00000000      -1.22393777      -1.07257254      -3.16465521       0.02684139       0.10103488       0.04062672       0.00182840
Au      67.05224992      69.96649314      79.08417309  T       0.00000000      -1.56880612      -1.43128618      -0.70614415      -0.63827682       1.21164668       0.08531414       0.00790909
Au      66.63248678      72.55258132      80.34807780  T       0.00000000      -0.61361043      -3.48087560      -2.15634242      -0.00209885      -0.15165637       0.00091961       0.00891218
Au      68.44155359      70.36826805      82.09752720  T       0.00000000      -1.04383512      -1.27412329      -3.31844204      -0.88159847       0.89738929       0.03053325       0.00917716
Au      68.60698377      72.31177087      78.47340929  T       0.00000000      -3.95802394      -5.32459825       1.93004291      -0.04367944       0.06130424      -0.09340692       0.00158368
Au      65.86233432      70.85662168      83.06313240  T       0.00000000      -0.30641813      -3.99498226       0.56438330       0.12724681       0.21542765      -0.24301445       0.00427935
Au      65.81999136      73.38504546      84.81284557  T       0.00000000      -4.05146099      -2.52554658       0.91034391       0.37740982      -0.27593023      -0.42811906       0.01444057
Au      67.53729435      70.95979776      85.21921864  T       0.00000000      -2.05144421       2.80000105      -2.09469778      -0.04622485       0.12411094      -0.54566044       0.01037423
Au      67.94014587      73.01085925      83.08404665  T       0.00000000      -0.15310630      -1.95049201       1.08046803      -0.29955441      -0.79865295      -0.26474893       0.01032668
Au      65.66165602      77.39899524      65.21524461  T       0.00000000      -2.90876983      -0.39896229      -0.33616298      -0.10142612       0.14703733       0.56381476       0.01396415
Au      67.74165288      76.58090887      63.67771681  T       0.00000000       7.11661456       3.42860594      -0.42204435       0.03679719      -0.32573417      -0.05478024       0.00502218
Au      66.49846767      74.77219483      65.50505307  T       0.00000000       4.25397161      -7.46695807       0.73857961      -0.76101768       0.59206551       0.28915048       0.00013085
Au      67.01854072      77.46304455      69.77206527  T       0.00000000       4.88380628      -0.84168777      -2.58121029       0.31871080      -1.07061398      -1.29692793       0.00989035
Au      68.60515858      74.74380525      68.64930635  T       0.00000000       3.00891814       0.67491004      -1.80902646      -0.07298049       0.54520053      -0.15486038       0.00840169
Au      68.06521620      76.97881499      66.61618417  T       0.00000000       1.97591199      -3.16051355      -1.96214869       0.04746046       0.06045455       0.27211642       0.00945637
Au      67.00410046      74.96444395      70.97435155  T       0.00000000      -1.48359506       3.09012639      -1.98215028      -0.24280149      -0.49167347       0.07315420       0.00908232
Au      66.50369053      77.35950990      72.34036308  T       0.00000000       1.24570086      -0.84049218       3.26320082      -0.64355993      -0.40115723       0.81688499       0.01008548
Au      69.34575720      76.56232382      70.87913203  T       0.00000000       3.37723393       1.22147624       4.67599436       0.15710175      -0.48921797       0.27592367       0.00187053
Au      67.27638678      74.27598518      75.28459405  T       0.00000000      -1.88533706      -1.87754702      -0.60229772      -0.39731431      -0.23165724       0.17582256       0.00248161
Au      67.03909806      77.09505892      76.31846754  T       0.00000000      -3.90334074       2.33510265      -0.63296976      -0.92699462      -1.34864414       0.59061402       0.00288533
Au      66.86529883      74.70199077      78.45492474  T       0.00000000       0.03017156      -2.67898013      -0.26191784       0.13943672      -0.42935252      -0.54220051       0.00833848
Au      67.12956424      76.67634411      80.23565219  T       0.00000000       4.16401844       1.15814385      -0.33167183      -0.14743024       0.03053299       0.27519071       0.00926930
Au      69.01418792      74.30828439      80.69808282  T       0.00000000      -1.04208844      -0.54491379      -4.06722576      -0.30363414       0.07498313      -0.28686088       0.00778587
Au      69.10568967      76.63347764      78.58292094  T       0.00000000      -4.08511237      -3.13769066      -0.95103623       0.35651699      -0.02915858      -0.41740033       0.00084952
Au      66.55757298      75.35595901      82.93177090  T       0.00000000       3.11091841       1.58490280      -0.33893401      -0.77580488      -0.66304266      -0.53540772       0.00449722
Au      65.80320939      77.81339893      83.55869656  T       0.00000000      -4.76428780      -4.99031698      -3.57746288      -0.21698110       0.25175190       0.15022990       0.01123479
Au      67.55152630      75.93739437      85.39964916  T       0.00000000      -1.97852515      -5.15097257       2.22481844      -0.56046689       0.25815809       0.29024231       0.00491628