568
Lattice="150.0 0.0 0.0 0.0 150.0 0.0 0.0 0.0 150.0" Properties=species:S:1:pos:R:3:move_mask:L:1:initial_magmoms:R:1:momenta:R:3:forces:R:3:magmoms:R:1 XYZ=T energy=-1981.374755859375 stress="-5.20732044151373e-07 2.561768042141921e-07 2.2975108038281178e-08 2.561856717875344e-07 7.124837111405213e-07 -3.602199285523966e-07 2.2981565095392398e-08 -3.6022632343701844e-07 -9.41717104296913e-08" free_energy=-1981.374755859375 pbc="F F F"
Rh      75.76169704      75.65943426      76.88801368  T       5.00000000       0.69256930      -1.13915289      -2.15712548      -0.02575859      -0.02199496      -0.01141255       4.29597855
Fe      78.47289691      74.66322243      75.15638464  T      -5.00000000       0.29684658      -2.25106503       1.87926522      -0.02285320       0.00628840      -0.02791606       4.13355494
Fe      76.93236135      76.90525417      73.95444091  T      -5.00000000      -0.45798744       0.37741732       0.59269192      -0.03807575       0.02137175       0.01421569       4.28587723
Fe      74.35266886      74.86309074      80.07389739  T      -5.00000000       0.11583470      -0.59964961      -1.49027053      -0.01981195       0.06881408      -0.02935982       3.87781334
O       75.18928142      77.47592237      77.26264940  T       0.00000000      -0.32502304      -1.18397469      -0.56673257       0.01678459       0.07062137       0.06312731       0.17379361
Fe      74.00508092      77.81716018      75.67975880  T      -5.00000000       1.04278750       0.20694053       0.24444416       0.00865012      -0.02661943      -0.02923310       4.26921701
Fe      72.61922291      75.76168454      77.50110824  T      -5.00000000       1.29278394       0.39809415       0.93610382       0.07632262      -0.02467459       0.02399036       4.35733271
Fe      71.08916224      77.11979158      75.56086268  T      -5.00000000      -0.39481589      -0.34223891      -0.43063601      -0.00818485      -0.05296689      -0.02204874       4.03696012
O       70.77940438      75.76870827      76.95780978  T       0.00000000       0.78779558      -0.03942171      -0.44041265      -0.07880592       0.02698204      -0.04567283       0.20049745
O       72.49390477      77.90764269      74.36805414  T       0.00000000      -0.49527578      -0.33694886       0.24768746       0.01489186       0.02089792       0.02643836       0.26164928
O       72.43590084      77.76879737      76.93557300  T       0.00000000       0.01226516      -0.25483501       0.10683448       0.02466127       0.02953330      -0.04454710       0.17241521
O       73.09480768      75.07390612      73.13129444  T       0.00000000       0.98531716       0.05442780      -0.70040480      -0.06955609      -0.00060599      -0.02463937       0.32077941
Fe      76.97700957      72.42971031      76.12873571  T      -5.00000000      -0.26885856      -0.41499900       0.43428336       0.04094192      -0.02400672      -0.03142612       4.28797913
Fe      74.71569426      72.95041153      78.00289614  T      -5.00000000      -0.99425034       1.05076917       0.02940931      -0.00047782       0.00442678      -0.05047277       4.36871719
Fe      74.50127629      70.43886356      75.34820731  T      -5.00000000       0.32939201      -0.71426461      -1.04760128      -0.01512890       0.00058444       0.07585272       3.70608997
O       76.44846264      70.84316925      75.17594415  T       0.00000000       0.03947677       0.63447838       0.86184848       0.01730527       0.05273218       0.03525287       0.16992642
O       73.77506536      71.39834320      76.88872888  T       0.00000000       0.15459104      -0.55107406       0.26768912      -0.00969809       0.00220302      -0.03744936       0.17453630
O       75.51657448      73.74448955      76.04496178  T       0.00000000       0.80898165       0.50030944      -0.84557528       0.00363699      -0.01388724       0.00438929       0.31267616
O       76.36103179      71.93840319      77.91711272  T       0.00000000      -0.51500913       0.31194984      -0.04222032      -0.01689574       0.06690070      -0.02739488       0.19154730
Rh      72.37462601      72.54854026      76.31545251  T       5.00000000       1.67827980       0.05255638      -0.41297492       0.06088994       0.01163596       0.04907605       4.18666172
O       74.23708547      72.95407651      79.94687729  T       0.00000000       0.36261955      -0.40740485       0.06122493      -0.00253163      -0.01371798      -0.00254774       0.16761644
O       73.01376379      76.04153377      79.34742911  T       0.00000000       0.23116026      -0.90719788       0.28875803       0.03538414      -0.04751065       0.05283650       0.15442070
O       75.56321506      74.75791458      78.54292582  T       0.00000000       0.06360135       0.96566395       0.74250280      -0.02475287      -0.02224128       0.05144495       0.32340187
O       72.93379163      73.83514740      77.58935162  T       0.00000000       0.73713812       0.86477556       0.48830276      -0.01285335      -0.04600772      -0.05368349       0.31918278
Fe      77.34355520      74.23877473      72.59469468  T      -5.00000000       1.37227859       0.31742319      -1.43807349       0.00690849      -0.04114711       0.06012279       4.26679516
Fe      75.26600665      76.35902910      71.52856438  T      -5.00000000       0.72187705       0.11432415      -0.99472055      -0.07276475      -0.03984296      -0.01094365       4.27160215
Fe      75.35115297      73.50865538      70.54460911  T      -5.00000000      -0.14662921      -0.69276600       2.21421447       0.01634324       0.00735110       0.00844181       4.09139347
O       74.23338344      75.10877846      70.40587955  T       0.00000000       0.25468589      -0.25631417      -0.80805277       0.03860587      -0.00852524       0.00250696       0.28817508
O       76.53952342      72.61734364      71.78155275  T       0.00000000       0.25381468       0.34837683      -0.71781756      -0.01758622       0.02569360      -0.03112385       0.14711842
O       75.73604709      75.36512384      73.29699283  T       0.00000000      -0.65883322      -0.27684170       0.04260595       0.04088759      -0.04092544       0.00299525       0.35979676
O       76.75641065      74.99909598      70.85993236  T       0.00000000      -0.04726948       0.25775754       0.58724031       0.02964553       0.02294007      -0.00035620       0.10259870
Rh      72.21724391      76.83481125      72.79738108  T       5.00000000      -1.10807859      -0.08546341       1.47176189       0.00429019      -0.04955918       0.00453231       4.26648378
O       75.54480039      78.11364497      74.57079084  T       0.00000000      -0.29950449      -0.10083544      -0.10032409      -0.00391874       0.04590204      -0.01425155       0.16145989
O       76.73810732      77.51940272      72.10895337  T       0.00000000       0.26469860       0.55354112       0.04855263       0.06298362       0.05877425      -0.02455935       0.14028671
O       73.95056431      75.79780591      75.84804285  T       0.00000000       0.30805969       0.45183718       0.60993328      -0.00655672       0.00650379      -0.00838551       0.37962624
O       73.77227769      77.51874032      71.80932068  T       0.00000000       0.78534958      -0.45668620       0.62757378      -0.00626992       0.04612329      -0.00220596       0.17748210
Rh      76.33606542      71.42418725      73.28978693  T       5.00000000      -2.25678833      -2.43360733       0.29824259       0.04172834       0.00032738       0.01611421       3.81896734
O       78.48408574      75.58654640      73.45235094  T       0.00000000       0.00965319       0.19653846       0.58596583      -0.01076543      -0.02737010       0.00362509       0.26108536
O       78.58195268      73.45689195      76.62105943  T       0.00000000      -0.06931854       0.04185739       0.57718557      -0.05811770      -0.02390990      -0.00314611       0.12817666
O       77.55075014      73.13004713      74.21258986  T       0.00000000       0.56724690       0.85711398       0.16261413       0.02767649       0.03174003      -0.02644501       0.23001498
O       77.27509410      76.07135151      75.75595708  T       0.00000000      -0.49667871      -0.08684657       0.02022393       0.03349681       0.00330778       0.00338957       0.31082815
Rh      74.45661715      74.45661715      74.45661715  F       5.00000000       0.00000000       0.00000000       0.00000000      -0.18147692       0.08875149       0.42244929       4.41996336
Fe      72.61829197      74.34676173      71.26189181  T      -5.00000000      -0.81044813      -0.31477706       0.98154422      -0.00616327       0.00650394       0.03460956       4.24719715
Fe      73.01082182      71.85543658      72.77194638  T      -5.00000000       0.06965572       0.16597723      -0.68616310      -0.03267796       0.02038899      -0.01961455       4.05367613
Fe      71.40983355      74.12665571      73.98448714  T      -5.00000000       1.53685922      -0.09506180       0.87321490       0.01824415       0.04662305      -0.06763420       4.26369810
O       71.42774301      73.04184414      72.40379664  T       0.00000000       0.08375063       0.28948835       0.01856434       0.01516002       0.01568152       0.03283443       0.30209997
O       70.74489409      75.92379822      74.08513040  T       0.00000000      -0.31478041       0.39213282      -0.26054993      -0.00118392       0.02980069       0.02657120       0.30744451
O       73.72322807      72.67635245      71.12970985  T       0.00000000      -0.05440165       0.35661124       0.18885159      -0.00354674      -0.03166837       0.00173143       0.22869247
O       73.15186141      72.97091713      74.55148736  T       0.00000000      -0.03353979       0.01986879       0.07953201       0.01349512      -0.01609910      -0.00292158       0.27604279
O       74.39923856      70.72895841      73.40321013  T       0.00000000      -0.67819802      -0.63129765      -0.58447563      -0.02192816       0.00667249      -0.03315670       0.13249668
O       70.73758547      73.15169862      75.53180094  T       0.00000000       0.93256486      -0.40791066      -0.44851046      -0.01149297      -0.02482883       0.05956756       0.13854870
O       71.47679664      75.88457780      71.20860445  T       0.00000000      -0.27638947       0.59490734       1.15788780      -0.03619885       0.00703580      -0.02476075       0.15209265
Au      64.33229845      67.67133418      73.44383948  T       0.00000000       0.25888747      -0.04047221       2.77976357      -0.00363767      -0.00538481      -0.00864646       0.00476353
Au      65.19008416      67.82850846      70.74674267  T       0.00000000      -1.97978496       1.23239239       0.27322458       0.00631115       0.01030349      -0.00587121       0.00506808
Au      65.62346317      65.58918197      77.22730255  T       0.00000000      -0.74626140       2.76205312      -1.32168558       0.01421652       0.03010579      -0.02787591       0.01048955
Au      64.11915164      67.61523927      76.16963983  T       0.00000000      -1.63544115       1.18889392      -0.99491690       0.00317384      -0.02744306      -0.00808312       0.00545833
Au      64.77024422      67.74059134      79.02956523  T       0.00000000       0.31039399       0.42173028      -1.19358068       0.00342929       0.01388760      -0.02141006       0.00577329
Au      64.67141260      70.16368430      69.19358690  T       0.00000000      -3.43332780      -0.37788719       4.91641523       0.01052784       0.00098868      -0.00482797       0.00749496
Au      65.24849068      72.85373129      66.30114024  T       0.00000000       1.82025411      -1.08143543       2.64180718       0.05127570      -0.01323000      -0.06460387       0.01165070
Au      62.92038678      72.49330483      73.12057939  T       0.00000000       2.25658053       2.93987121       0.63602422      -0.03320454       0.00229906      -0.00658036       0.00374046
Au      64.19405381      70.12593784      72.07967338  T       0.00000000       1.87536295       1.53299757      -0.50492289       0.00759169       0.00888437       0.00067334       0.00166661
Au      64.38232446      72.59759694      70.74869477  T       0.00000000       2.44192505      -0.16895724      -0.82255514      -0.00510215       0.02303014       0.00536609       0.00300834
Au      63.12535818      69.95673794      74.66946092  T       0.00000000       4.54521985       0.73633894      -1.84375225      -0.02848053       0.01271546      -0.01894995       0.00634292
Au      63.39325299      72.38560859      75.93574924  T       0.00000000       2.65319183       1.95198696      -1.20282889       0.01872147       0.03002268      -0.02159394       0.00114489
Au      64.09191983      70.02434968      77.42118880  T       0.00000000       0.62316248      -1.18723411       0.89735363      -0.00752100      -0.00055388       0.00992212       0.00215897
Au      65.65497725      72.11109984      73.64672774  T       0.00000000       0.97782118      -1.25422902       0.75233825       0.01138201       0.01115453       0.02118703       0.01189840
Au      64.25539461      70.14591019      80.55285701  T       0.00000000      -1.29485589      -2.96534898      -1.21587186      -0.01843511       0.00953031      -0.01047075       0.00608534
Au      64.06233636      72.37740451      78.79342105  T       0.00000000      -0.33592009      -0.92398683      -2.37466430      -0.00613956      -0.02169107      -0.01119404       0.00311244
Au      63.95660618      72.57272087      82.03614069  T       0.00000000      -3.27460431      -1.36677906      -0.18734610       0.00896735       0.00725575      -0.01680304       0.00954501
Au      64.64229587      74.71109503      68.70895822  T       0.00000000      -0.38542402      -1.56239683      -1.71570425      -0.01033592       0.00209808       0.01110063       0.00128332
Au      64.61141110      77.32492307      67.82544767  T       0.00000000      -3.07057602       0.81887276      -2.05771763      -0.01700741       0.00191689       0.00626553       0.00780207
Au      62.75586360      74.79844362      71.29702791  T       0.00000000       1.72262965       0.04311341      -1.65143642      -0.00824489      -0.00776251      -0.00559829       0.00958085
Au      62.91072374      77.09988802      72.92548937  T       0.00000000       2.68629422      -4.38789090      -0.02020516      -0.01952565       0.01044846      -0.00353002       0.00543979
Au      64.94447776      74.74758638      72.91985198  T       0.00000000       1.13553724      -4.87036026      -3.63131708      -0.00859147       0.01195146      -0.01862115       0.01378274
Au      64.60686394      76.85872829      70.71765366  T       0.00000000      -2.89417769       1.40926951      -1.55984276      -0.00460627       0.01513900      -0.02433966       0.00599480
Au      62.59365132      74.84246660      74.56276943  T       0.00000000      -2.13942764       0.80785396      -1.53180413      -0.00275192      -0.02589426       0.00255958       0.00321931
Au      62.99990411      77.13350304      76.08214561  T       0.00000000      -0.13706843      -1.11216732      -3.11865377      -0.00991280       0.00581105       0.00746608       0.00514241
Au      65.23753693      74.54667746      75.66819511  T       0.00000000       1.69721314       0.48010120      -2.08628582      -0.00515231       0.00516959      -0.01468113       0.01312566
Au      65.25428773      77.14186662      74.43298589  T       0.00000000      -0.05156386       0.52802410       1.46086452       0.01066589       0.02318299       0.02501281       0.01209086
Au      63.05559941      74.70605263      77.46050516  T       0.00000000       2.41850814      -3.31782465      -0.15335488       0.00262408       0.00452229       0.00759956       0.00434662
Au      63.96028134      74.74300566      80.15577395  T       0.00000000      -4.29619764       3.98898743      -2.88417189       0.03532700       0.00276537       0.00650333       0.00168994
Au      64.65773324      76.87821575      78.39479190  T       0.00000000       1.67926652       0.38433355      -3.72610995      -0.02039839       0.01157073      -0.02512053       0.00689015
Au      64.39762034      77.25544374      81.25275240  T       0.00000000      -2.10098317       1.43291153       2.30867692       0.01817049      -0.01777519       0.00313007       0.00711448
Au      64.70788260      79.51720366      69.55518659  T       0.00000000       2.49253997       1.85950570      -0.70528485       0.01446232      -0.01040081       0.01162748       0.00747637
Au      65.15799865      79.15344768      72.40896111  T       0.00000000       3.89242000       1.65423423      -1.76948851       0.01021639      -0.01094026      -0.02694725       0.00696707
Au      65.45020010      81.66338601      71.20092041  T       0.00000000       1.19868626      -0.09108379      -1.04145067      -0.00706975      -0.00208517      -0.00416549       0.00588951
Au      63.34903673      79.38825901      74.49238729  T       0.00000000      -1.66170381       0.62568410      -1.18268858      -0.00160445      -0.00127541       0.00129141       0.01084004
Au      65.12896619      79.07178685      76.63607307  T       0.00000000       1.52028137       2.05061552      -0.42783099      -0.01405612      -0.01568682      -0.00115945       0.00793985
Au      65.56026960      81.10813411      74.61869372  T       0.00000000       0.25273138       1.78442749       0.65285850       0.01141510       0.00428690      -0.00156632       0.00435916
Au      64.59703140      79.49640357      79.55432540  T       0.00000000      -0.43512490      -0.54058546       1.30656398      -0.00538140       0.01735663       0.01119942       0.00767761
Au      65.23615987      81.59308519      77.86896846  T       0.00000000       2.15043581      -2.79816150       0.18871358       0.00329242       0.01614096       0.00364111       0.00663316
Au      66.14926904      83.48207988      73.21043194  T       0.00000000      -1.56164019      -3.00153213      -1.12196356      -0.01204767      -0.00104345       0.01327821       0.00748584
Au      66.02168063      83.52477162      76.07557474  T       0.00000000       3.41644418      -0.27487967      -3.37992732       0.00087580      -0.00876133      -0.01420373       0.00876352
Au      66.06433958      65.71999521      72.60108293  T       0.00000000      -0.24552137      -2.06546946      -0.81800145       0.00093386      -0.01281603      -0.00171075       0.00973031
Au      68.54064356      64.52273156      72.31917538  T       0.00000000      -0.47227273       2.10166365       1.85651659      -0.01351407       0.00976487       0.01779496       0.01136412
Au      68.11042181      64.37069425      77.17950447  T       0.00000000       1.97897495       1.61217944      -0.80831973       0.02172334       0.03493122       0.00042466       0.00961775
Au      69.57460308      64.80850353      74.89096469  T       0.00000000       1.87987818      -0.34259689      -0.35309253       0.00988259       0.00547879       0.01429385       0.00230187
Au      69.78399367      64.79544461      79.36609343  T       0.00000000      -0.07541666       1.54691182       3.62693871      -0.00764308       0.01072112      -0.01162932       0.00434288
Au      67.11503390      68.62137984      68.86135729  T       0.00000000       1.48636002      -0.34348504       0.85756072       0.01007809       0.01368602       0.01098021       0.00401103
Au      68.95329356      66.50949497      68.13170589  T       0.00000000      -0.32573667       1.00140845       0.62968068       0.00223991       0.00157137      -0.00097010       0.00642344
Au      68.62438964      68.80375944      66.44956929  T       0.00000000      -3.61010376       0.79911321       1.13202292       0.00266701      -0.02111619       0.00178652       0.00101580
Au      67.83387147      66.62581248      70.64491466  T       0.00000000       3.29336452       3.07456332       0.42980545       0.00617366      -0.00418462       0.01646075       0.00218397
Au      67.05120814      68.46301637      72.76781151  T       0.00000000      -1.34021408       0.48370440      -0.67944043      -0.00329491       0.00867601      -0.01823024       0.01470608
Au      69.47316338      67.05808658      73.09193226  T       0.00000000       0.48349983       0.49139846       0.40640641       0.00457491      -0.00206286       0.00407713       0.01433334
Au      69.28517899      69.23096002      71.06008003  T       0.00000000      -3.38927222      -0.26137843       1.95114136       0.00785149      -0.01156009      -0.01285356       0.01192126
Au      67.13913646      66.46345687      75.00860611  T       0.00000000      -1.11327641      -1.99354187      -0.69020943       0.00847154      -0.00800296       0.00909709       0.00722535
Au      66.78256114      68.26967567      77.20576964  T       0.00000000      -0.64476918       1.07959106      -1.21561893       0.00288835       0.00598557      -0.00664599       0.01338185
Au      69.23997305      66.88830573      77.08348975  T       0.00000000       2.14433904      -0.18379798       0.07525928      -0.01352617      -0.01502029       0.01144830       0.01388824
Au      68.69389336      68.95400426      75.14359775  T       0.00000000       0.50859710       0.80045793      -0.06862174      -0.00814778       0.00768764      -0.01482926       0.01145181
Au      67.33403852      66.28538385      79.26243592  T       0.00000000      -0.14113424       3.02589077      -2.15510239      -0.02263795      -0.00468612      -0.02979426       0.00057848
Au      66.60558592      68.44123804      80.99849453  T       0.00000000      -0.78292648       1.11271972       0.05007734      -0.00593496      -0.00571052       0.01867126       0.00110874
Au      69.14338952      66.87990339      81.23850952  T       0.00000000      -2.34135600      -0.83236312      -0.92268352      -0.02162617      -0.00460532       0.02053476       0.00319749
Au      68.87247425      68.96118363      79.19598318  T       0.00000000      -1.24894640       0.57529527       2.71984905      -0.01154477      -0.01961589      -0.00111842       0.01230413
Au      68.25405092      68.76300409      83.20828819  T       0.00000000      -2.12094921       0.33101798      -0.34449259      -0.00569508       0.00630425       0.00432434       0.00141479
Au      67.54383468      73.62710795      64.17534631  T       0.00000000      -1.70808827       1.67821798      -0.81526857      -0.01519889       0.00208525       0.00820205       0.00626536
Au      68.04067936      70.74353855      64.54521261  T       0.00000000       2.21092336       1.09775674       2.60726688       0.00055962       0.00207746       0.00664157       0.00843267
Au      66.27821867      70.34095117      66.83006941  T       0.00000000       0.37202153       1.51478459      -1.44147699      -0.00704741      -0.00283437      -0.00972330       0.00438891
Au      66.37032359      72.47247256      68.80955628  T       0.00000000       1.20185415      -1.89934622       2.09883350      -0.01352513       0.01102802      -0.00500521       0.01186106
Au      68.81700146      70.92159194      68.82886122  T       0.00000000       0.87252356      -0.85558956       3.53888326      -0.00707267      -0.00583654       0.01155655       0.01300581
Au      68.12456774      72.54355669      66.63355801  T       0.00000000       1.40106435       1.04029049      -0.10717649       0.00512037      -0.00409019       0.01317116       0.01418167
Au      66.75359710      70.67585906      70.95907747  T       0.00000000      -0.12090442       3.44056247      -3.87669814       0.00088321       0.02370740       0.01705040       0.01340979
Au      67.76698378      74.00514800      73.27240899  T       0.00000000      -0.12929084       1.89160256      -0.42435296      -0.03329968      -0.03827704       0.02401912       0.00461089
Au      68.34461638      71.12555746      73.15323932  T       0.00000000       0.32221971       2.03174575       0.05707743      -0.00891809      -0.01169397      -0.00458867       0.00658476
Au      68.81416089      72.81892757      70.88377810  T       0.00000000      -2.09144244       0.39238593      -1.88735334       0.01441306       0.00355982      -0.02419200       0.00334146
Au      65.86043214      69.66097028      74.96490239  T       0.00000000       1.71375176       3.50020234       1.93622151       0.01596885       0.00799997      -0.01668119       0.01287572
Au      66.21460390      71.96494360      76.52645992  T       0.00000000       0.48617599       0.52401910      -4.52673708      -0.01502958      -0.03328109      -0.00176042       0.01207055
Au      69.28777147      71.53913566      75.71868841  T       0.00000000       0.77672471      -0.04160989       2.75109316      -0.02256125       0.00144985      -0.02265796       0.00455132
Au      66.46999476      70.45883361      78.94199329  T       0.00000000      -3.33800316       4.11494772      -1.28791611      -0.00787161      -0.00754315      -0.00563834       0.01328991
Au      66.29326183      72.75466736      80.62394115  T       0.00000000       1.71669093      -3.09835429       1.33309800      -0.00258499      -0.00127377      -0.00833795       0.01473251
Au      68.25541045      70.90311631      81.24355362  T       0.00000000       0.40759410       0.18980394       2.22099446      -0.00373086       0.00821666      -0.02475706       0.01444419
Au      68.43346733      72.36135574      78.29699776  T       0.00000000      -0.31045550      -0.22263394       0.22630460       0.00809415      -0.00711807       0.01997666       0.00600539
Au      65.89685113      70.61051620      82.75579361  T       0.00000000       0.47446124      -1.37676820       1.53918018       0.00828395       0.00430288      -0.01832891       0.00154795
Au      65.72507721      72.95924217      84.31687124  T       0.00000000      -0.84824960      -1.34481432      -1.73029345       0.01625061       0.00708180       0.00467333       0.01028138
Au      67.85238819      71.10685165      84.67467312  T       0.00000000       5.91001245      -0.15222339      -0.13190874       0.01092982       0.00238705       0.00409559       0.00418314
Au      68.11680651      73.33642796      82.94471493  T       0.00000000       0.05844522       0.29968082       0.55950140      -0.00248902       0.01234563      -0.00675429       0.01260443
Au      65.99592608      77.77488425      65.44373972  T       0.00000000      -0.89641949      -2.82661253       1.08990745      -0.00320790      -0.00282878      -0.00753029       0.01144983
Au      67.99929713      76.41657754      64.15170829  T       0.00000000       2.62097781       1.24320153       0.86809955      -0.00513637       0.01051001      -0.01087591       0.00331628
Au      66.51945474      75.21141876      66.45872631  T       0.00000000      -1.46085548      -1.91473755       1.49459608      -0.01335036       0.00944944       0.02926072       0.00601089
Au      66.96399281      76.88205573      69.21064976  T       0.00000000       0.74836155       2.81620613       2.78605895      -0.01047632      -0.00844415      -0.01543520       0.01508746
Au      68.44781279      74.65659084      68.52862293  T       0.00000000      -3.10871099       0.15047413       1.94703535       0.01298366       0.01595160      -0.00633059       0.01362438
Au      68.57137844      77.10448304      66.90287475  T       0.00000000       1.28703897       0.09123402       1.16434449       0.00958820       0.01825064      -0.00051515       0.01430044
Au      66.59833122      74.53285404      70.75506473  T       0.00000000      -0.26850966       0.59305464       0.08844770      -0.00395724      -0.00340710      -0.01268820       0.01377751
Au      67.16569454      76.86069510      72.35100844  T       0.00000000       3.05904892      -4.49237357      -1.76289113      -0.01839732       0.01197369      -0.02218657       0.01002914
Au      69.33637807      75.96533203      70.91111610  T       0.00000000       2.28340731      -2.93563916      -1.99106957       0.02878587       0.01389286       0.01197231       0.00432391
Au      67.98561976      74.12711399      76.04384771  T       0.00000000       0.92119631      -1.44602016       0.12236095       0.00612710       0.01445600      -0.01604466       0.00117762
Au      66.94415306      76.73003533      76.65023078  T       0.00000000      -0.52738698      -2.55025686      -0.34359500      -0.00452362      -0.01276052      -0.01806650       0.00900373
Au      66.21621303      74.32244895      78.28532195  T       0.00000000       1.96834691       0.50926591       0.24356323      -0.01394977       0.01677752       0.00010221       0.01486400
Au      66.92341130      76.33614152      80.08752703  T       0.00000000      -3.62145716      -3.23546360       1.14349228      -0.02202447      -0.01558893       0.01632737       0.01464613
Au      68.81367559      74.18870543      80.36684732  T       0.00000000       1.39052000       1.49986540      -1.40660821       0.03028419      -0.01994857       0.02155886       0.00867113
Au      69.10112436      76.06764027      78.33627045  T       0.00000000      -0.30736953       2.74904376      -2.04602820       0.00881390      -0.00807890      -0.00799273       0.00519617
Au      65.70783012      74.88226183      82.34934213  T       0.00000000      -2.09752132      -1.16632447      -1.70322960       0.01295084       0.00801575       0.00128374       0.00603668
Au      65.80488420      77.15340089      83.78195055  T       0.00000000       4.22004250      -2.84338358      -0.43337684      -0.00103306       0.02410173       0.00547651       0.01059051
Au      67.51831485      75.23106026      85.02528477  T       0.00000000      -0.91844790       2.46537835      -0.13530909      -0.01132284      -0.01348524      -0.00773253       0.00336942