614
Lattice="150.0 0.0 0.0 0.0 150.0 0.0 0.0 0.0 150.0" Properties=species:S:1:pos:R:3:move_mask:L:1:initial_magmoms:R:1:momenta:R:3:forces:R:3:magmoms:R:1 XYZ=T energy=-3678.17626953125 stress="-3.498702426441014e-06 6.596247548174006e-09 -3.1118395327212056e-07 6.647904893242185e-09 -3.7567588151432574e-06 7.788300990796415e-07 -3.1111110843085044e-07 7.7878377169327e-07 -2.7771184250013903e-06" free_energy=-3678.17626953125 pbc="F F F"
Fe      73.19675298      76.97417776      83.73548524  T      -5.00000000       0.97198371       1.39201604      -0.40505518      -0.01230036       0.01091930      -0.01191849       4.17659950
Fe      71.91241841      74.26405667      85.30318597  T      -5.00000000       0.69137557      -0.51581087      -1.80723427       0.00873017       0.00416458       0.00388061       3.17313099
O       71.40631717      77.40481262      84.10023272  T       0.00000000       1.61202260       1.82019689       1.08529410       0.01082061      -0.00302283       0.01089037       0.05209860
O       73.24234906      75.11173711      84.05433683  T       0.00000000       0.57614304      -1.02403391      -0.46362998      -0.01733699      -0.02361955       0.00754842       0.24392647
Fe      77.34315429      73.49888745      84.25818555  T      -5.00000000       0.01990434      -3.10315637       0.96360760      -0.00233558      -0.01954841      -0.03127926       3.81517553
Fe      75.44699007      71.38056515      83.96728286  T      -5.00000000       2.19262170       0.43519202       0.37533696       0.00326744      -0.00692892       0.00985571       3.87937880
O       77.45485111      71.46387388      84.16777201  T       0.00000000      -0.23272663       0.72331754       1.19096664      -0.01414409      -0.02677572       0.00292508       0.07790476
O       75.40697603      73.33174079      83.91702618  T       0.00000000       0.09647458       0.55613353      -0.76398722       0.01097330      -0.00142214       0.00147918       0.23676205
Fe      73.28456131      83.90478800      77.44911902  T      -5.00000000      -1.66126430       0.66996230      -0.97133204       0.01093281      -0.01045016      -0.00520045       3.79590607
Fe      71.25858828      84.15081918      75.36816982  T      -5.00000000       0.43981087       1.68864978       1.07646864       0.00801921      -0.01977123      -0.03241782       3.77349257
O       71.25343040      83.91456790      77.37630713  T       0.00000000       0.70448431      -0.37606544      -0.61195050       0.00867000       0.03330472       0.01334466       0.06588563
O       73.26817015      84.00419965      75.40334593  T       0.00000000      -0.14983218      -0.40512103      -0.52987303      -0.01468956       0.01379233       0.00151801       0.17757469
Rh      76.45345090      76.45345090      76.45345090  F       5.00000000       0.00000000       0.00000000       0.00000000       0.24178495       0.12997098       0.17605969       4.40424681
Rh      80.53076078      76.44854976      80.90063086  T       5.00000000      -0.76677114       0.91350017      -1.36660172      -0.00924221      -0.00121126      -0.00588110       4.37148905
Rh      76.35770005      80.78019738      80.94494435  T       5.00000000       0.47243463      -1.28148672      -1.21883564      -0.00876661      -0.00713029      -0.00728783       4.33203554
Rh      80.79498996      80.49537733      76.44008191  T       5.00000000      -1.39563040       2.94167973      -1.21661503      -0.00780543      -0.00808194       0.02558044       4.30291080
Fe      78.98809482      79.11761793      81.07903490  T      -5.00000000      -1.39485405       0.66920015      -3.03505460      -0.00298835      -0.00059450       0.01348839       4.36161566
Fe      77.64075165      81.84485828      75.48604697  T      -5.00000000      -0.81424501      -0.94846931      -1.61284195      -0.02496274      -0.01307828       0.00598292       4.42417622
Fe      81.91094506      77.36120172      75.45657775  T      -5.00000000      -3.23240115      -0.81724272      -0.43383076       0.00163192       0.00672092       0.00501166       4.42626429
Fe      82.23895791      76.14644078      78.60965297  T      -5.00000000      -4.55037246       1.71246155      -2.30055179      -0.05842733       0.04852706      -0.01537877       4.31005096
Fe      77.63092234      75.44662860      81.95097480  T      -5.00000000       0.12884455       0.85713734      -1.79582966      -0.01417965       0.00278556       0.00372843       4.44636631
Fe      75.48296476      77.57543854      81.81311519  T      -5.00000000      -0.25876897       1.15899232      -1.94085382      -0.00289839       0.00970057      -0.00399581       4.43301773
Fe      75.46882872      81.79687355      77.61890629  T      -5.00000000       0.63784613      -1.51001220      -2.38182418       0.00222313      -0.01437481      -0.02224746       4.42838001
Fe      79.60213890      75.40388890      75.40388890  F      -5.00000000       0.00000000       0.00000000       0.00000000       0.75260615       0.13552743       0.32575297       4.43800688
Fe      77.45355534      77.42021288      79.55984564  T      -5.00000000       0.91061961       1.71450950      -0.56811210       0.00432211      -0.00698829      -0.00534075       4.37779999
Fe      77.57962205      79.72439563      77.64398692  T      -5.00000000      -0.87939692       1.83446411      -2.72645180      -0.01365149       0.00910461      -0.00314001       4.42968798
Fe      75.40388890      79.60213890      75.40388890  F      -5.00000000       0.00000000       0.00000000       0.00000000       0.40453887       0.60593057       0.32285768       4.40805578
Fe      79.67085926      77.53601083      77.56333128  T      -5.00000000      -1.34863258       1.33081894      -1.99515097       0.00523767      -0.00296222      -0.00095699       4.44064999
Fe      75.40388890      75.40388890      79.60213890  F      -5.00000000       0.00000000       0.00000000       0.00000000       0.24539697      -0.06091124       0.51524794       4.40429163
O       77.54415690      77.54415690      77.54415690  F       0.00000000       0.00000000       0.00000000       0.00000000       0.02906173       0.52367461       0.30798930       0.31081057
O       79.37486213      75.57430203      77.30368538  T       0.00000000      -0.79427412       1.71947512      -0.63219172      -0.00507703      -0.01979467       0.01395863       0.33047497
O       75.46844789      77.35967602      79.72992951  T       0.00000000       0.28637629       0.44613651      -0.10184453       0.00054142       0.00644538       0.01486766       0.28751066
O       77.44894892      79.70354252      75.43003391  T       0.00000000       0.02540693       1.34785972       0.00222958      -0.00416309      -0.00164187       0.00601023       0.31329542
O       75.54664775      79.71836259      77.38330928  T       0.00000000      -0.31829848      -0.11367946      -0.44858065       0.00259872       0.00149441      -0.00423571       0.27726772
O       79.75994231      77.45161982      75.39975806  T       0.00000000      -0.26570536       0.03088315       0.49514143       0.00446266      -0.00447991       0.00710520       0.31780738
O       77.48466869      75.37018530      79.70827408  T       0.00000000       0.82582427       0.97469572      -0.81629365       0.00638312       0.00397956      -0.00588393       0.34434950
O       76.98116479      82.62598224      81.50896814  T       0.00000000      -0.28255093       0.39031459       0.77494762      -0.01642020       0.01666301      -0.01456515       0.09686966
O       81.63692246      77.48363647      77.41922673  T       0.00000000       0.54352000       0.14703581       0.65800453       0.00757756      -0.01743577       0.01501937       0.31404465
O       79.49672196      79.47526685      77.35666679  T       0.00000000      -2.16753687      -1.26616181       0.82029675       0.02863581       0.02839229      -0.01509422       0.32378918
O       80.24499738      77.99259816      82.03583307  T       0.00000000      -0.68129621      -0.57782230      -0.26247308       0.00878584       0.00957917      -0.00489292       0.16223416
O       75.47851925      81.65986978      75.45086904  T       0.00000000       0.87683072       0.45766070       0.52297435       0.01530814      -0.02919228       0.00963008       0.31327343
O       75.50086362      75.45362711      81.66217275  T       0.00000000       0.33828927       2.02488489      -0.44827420      -0.00678879       0.01665723      -0.00108443       0.31897184
O       77.82196850      80.16763755      82.25168267  T       0.00000000      -0.15088995      -0.55960278      -0.18225266       0.00053933      -0.00313210      -0.00984204       0.14808758
O       79.46855356      77.56916380      79.59480855  T       0.00000000       0.53851557      -0.78392152      -1.11401294       0.01083012      -0.00572334      -0.00324991       0.29966938
O       82.35674568      76.81093882      80.40019505  T       0.00000000       0.72267284      -0.78634757       0.27033872       0.01149401       0.01388490       0.01688577       0.15373299
O       77.43514072      81.65881874      77.43450381  T       0.00000000      -0.67940083       0.07663779      -0.22498636       0.00494042      -0.02092882       0.00587566       0.34746951
O       77.48212834      79.52250381      79.66471531  T       0.00000000      -0.06874272       0.81372837       0.64310476      -0.00012562       0.01148021      -0.00164008       0.31645903
O       80.19997612      80.59239998      80.50693302  T       0.00000000      -0.89914469      -1.78922767       1.87310890       0.00936942      -0.00357056       0.00457413       0.10993788
O       81.61696734      75.40791893      75.29794997  T       0.00000000       0.52834122      -0.77063879      -0.51798358       0.01202706      -0.00205690      -0.00663772       0.33300024
O       81.80981385      81.08281990      77.91626811  T       0.00000000       2.02580536      -1.15079984       0.42042874      -0.01094286      -0.02976377      -0.02505831       0.09730256
O       77.46165585      77.41319666      81.57071304  T       0.00000000       0.48672872       1.74373019       0.80993392      -0.03514337       0.01421829      -0.00044590       0.30898213
Rh      67.95645855      76.42442113      76.49627141  T       5.00000000       0.35980932       0.19514201       1.10672465      -0.01464875       0.00170904      -0.00218015       4.38002443
Rh      72.11883295      76.41692821      80.68425579  T       5.00000000      -0.52753309       0.06039402       3.77828053      -0.00332065      -0.00286099       0.00558425       4.36965370
Rh      70.13791647      82.64255881      78.44133853  T       5.00000000      -1.14890193      -0.95829395      -1.63800727      -0.00854332       0.00144540       0.00884144       3.78791332
Rh      74.37851396      78.69420527      78.66054668  T       5.00000000       0.61218883       1.40250709      -0.37275955      -0.00635404       0.00075260       0.00456938       3.91603422
Rh      72.19152188      80.71223781      76.51598816  T       5.00000000      -1.93830700       0.75941605       2.84886299       0.01520047      -0.00022076      -0.00128938       4.33730459
Rh      70.01655917      78.45668692      83.18104570  T       5.00000000       0.80185556       1.17789765       3.30246209       0.00313734       0.02048405      -0.00707670       3.42416620
Fe      70.95068148      79.79336908      79.82444086  T      -5.00000000      -0.47804616       0.27720559      -0.53774372       0.02390677       0.00415145       0.00819936       4.43171453
Fe      69.19124072      81.55287708      75.37715634  T      -5.00000000       0.59712865      -0.10175337      -0.03029872      -0.00875250      -0.00462779       0.01795805       4.19656181
Fe      73.30476427      77.50301390      75.40388890  F      -5.00000000       0.00000000       0.00000000       0.00000000      -0.12234142       0.07841769       0.34597683       4.34793282
Fe      73.30476427      75.40388890      77.50301390  F      -5.00000000       0.00000000       0.00000000       0.00000000      -0.16078568       0.39850801       0.08461837       4.34574032
Fe      69.13830452      75.36554187      81.91104847  T      -5.00000000      -0.00848398      -1.23664417      -1.44995770      -0.00181146      -0.01197904       0.00183891       3.86715794
Fe      71.20563927      75.40388890      75.40388890  F      -5.00000000       0.00000000       0.00000000       0.00000000      -0.14136201       0.03387797       0.06423332       4.36713171
Fe      68.93464733      77.55411166      79.73891331  T      -5.00000000      -2.14171883       0.28489872       1.93689990       0.00329188      -0.00416499      -0.00462739       4.44408703
Fe      73.25947452      81.65966638      79.74414114  T      -5.00000000      -1.50387255       1.42892587       3.02506591      -0.00930145      -0.00982568      -0.00755417       4.29872942
Fe      73.19178890      79.57567734      81.71629887  T      -5.00000000      -1.13218514      -1.16163429      -0.61971785      -0.01586474       0.01131660      -0.00577754       4.30375862
Fe      68.78524037      79.70888654      77.62677133  T      -5.00000000      -1.49682651      -2.52446239      -0.07395629      -0.00464866       0.00192204      -0.01514591       4.42585182
Fe      66.70574811      79.34381710      75.41968208  T      -5.00000000      -1.78355459      -1.16153618      -2.37647646       0.00121386       0.00715488       0.01746699       3.82097864
Fe      71.16321763      77.60388868      77.57944687  T      -5.00000000      -2.80879900       1.23528320      -0.12112556      -0.00301435       0.01441278       0.00256498       4.36056423
Fe      66.98613978      75.29426169      79.46222766  T      -5.00000000      -1.94077422       3.53276566      -1.40461340       0.00236183       0.00604701      -0.00902731       4.03877401
O       69.09910399      77.58423383      77.60020822  T       0.00000000       2.06265642      -0.13921041      -0.39758348       0.00086981      -0.01236200       0.00027138       0.33269528
O       73.22791304      81.54925714      81.73471789  T       0.00000000       1.03494324       0.52976922       0.95422626       0.01417687       0.00021517      -0.03438938       0.15551671
O       71.24678127      75.44503190      77.46187090  F       0.00000000       0.00000000       0.00000000       0.00000000      -0.01280433       0.26017109      -0.05594343       0.33857453
O       75.18076848      81.51644251      79.56235893  T       0.00000000      -0.26079719      -0.33216134       0.09252336      -0.01038539       0.00881718       0.01419309       0.29206294
O       67.02678803      77.19965199      79.65358177  T       0.00000000      -0.53859724      -0.43830615       0.65168148       0.02627152      -0.00400031      -0.01066452       0.10467394
O       68.93001398      79.61630521      75.48330017  T       0.00000000       1.33202962       0.01182549      -0.44927353      -0.00358126       0.00350428      -0.00230250       0.30646813
O       66.85361061      79.74782121      77.32494725  T       0.00000000       0.96989670      -0.13851985       0.51539246      -0.02116871      -0.00022803      -0.01019482       0.16181923
O       75.13745909      79.48184313      81.69621046  T       0.00000000       1.13683790       0.64982197       0.38174710       0.02234775      -0.00026432       0.00493059       0.31345594
O       71.24678127      77.46187090      75.44503190  F       0.00000000       0.00000000       0.00000000       0.00000000       0.02999884      -0.08706546       0.29250365       0.33558208
O       69.01065625      75.43062519      79.72270110  T       0.00000000       1.31226666      -0.05304995       0.82925469      -0.00202611       0.00775096      -0.00252193       0.27780253
O       73.26362127      77.46187090      77.46187090  F       0.00000000       0.00000000       0.00000000       0.00000000      -0.67112339      -0.32084298      -0.39138791       0.31022567
O       71.01812087      79.61287072      77.58747630  T       0.00000000       0.00852113       0.52991458       0.42289199       0.00703979      -0.00308523       0.00447500       0.32514775
O       71.20693469      79.51676830      81.85360607  T       0.00000000      -0.58898614       1.79423872      -0.73960033      -0.02875586       0.00023809      -0.00819898       0.17108122
O       75.07125043      77.29117697      83.70739555  T       0.00000000       1.46472253      -0.91248084      -0.05772045       0.00610777       0.01314124      -0.01853495       0.11611906
O       75.18371730      83.69110057      77.43299520  T       0.00000000      -1.88618735      -0.90778893       1.55791492      -0.00320577       0.01789287      -0.00711128       0.11077745
O       71.27502504      81.73040165      79.68967335  T       0.00000000      -0.46161962       0.79066095       0.38038101      -0.01049334       0.00378519      -0.00901365       0.29557407
O       71.02855985      77.58397215      79.58130692  T       0.00000000      -0.65556400      -0.56012409       0.66541385      -0.00173711       0.00502759      -0.01525003       0.32880914
O       73.26911451      77.50345754      81.80350927  T       0.00000000       1.34421146       1.33076174      -1.14541623       0.00501670      -0.00015654       0.00707281       0.30014366
O       68.92049269      81.69929978      77.25683271  T       0.00000000       0.78949577       0.61631410      -0.43126216       0.00023396       0.00765009       0.00174057       0.25867748
O       69.04853412      79.53413006      79.56637601  T       0.00000000       0.65270791      -0.62786408      -0.22921208      -0.00810669      -0.01342466       0.01411409       0.33164376
O       72.97426279      79.66168887      79.75457714  T       0.00000000      -1.30724159      -0.60508105       0.20963245      -0.01534910      -0.00091658      -0.00863272       0.31323558
O       73.26362127      75.44503190      75.44503190  F       0.00000000       0.00000000       0.00000000       0.00000000      -0.31901121       0.25199056       0.24959086       0.30244833
O       73.29947448      81.78571173      77.64703759  T       0.00000000       0.18638540       0.28510696       0.19854532      -0.01075804       0.00357719       0.00402988       0.27290809
O       69.12763992      77.35290052      81.73436746  T       0.00000000      -1.68907280       1.20882557       0.22904485      -0.00546585      -0.00335762      -0.00346519       0.09566972
Fe      84.07530745      73.39557488      77.58923427  T      -5.00000000      -3.37654434       1.57080885      -0.88550060      -0.01018530       0.00916377       0.00233860       3.74746919
Fe      84.19148699      71.47935251      75.35984074  T      -5.00000000      -0.29259540       0.40183419      -2.69152473      -0.00190061      -0.00273520       0.00027040       3.83646393
O       84.24618590      71.32369544      77.36675681  T       0.00000000      -0.22260415       0.88642062       0.81382918       0.01115479       0.00697571      -0.00439295       0.08930391
O       84.03001737      73.51457389      75.55093563  T       0.00000000       0.96823458       0.47429970      -0.54199062      -0.00067823       0.00180763       0.00022025       0.18552229
Rh      76.48026795      68.02165140      76.50120504  T       5.00000000      -0.95066566       3.12662206      -0.31583699       0.00339231       0.01031282       0.00418466       4.38206148
Rh      78.84399920      74.41781726      78.67922347  T       5.00000000       0.13874485      -0.08357694       0.79544905      -0.00383776       0.01206040      -0.00476640       4.36859226
Rh      76.60440641      72.27341571      80.75254120  T       5.00000000      -0.90993520       1.87156752       2.33313930       0.00131746      -0.00883253       0.00107484       4.34429979
Rh      82.56900446      70.81368122      78.22965035  T       5.00000000      -1.37386632       3.20123221       3.53503560      -0.01634014      -0.01032396       0.00557650       4.22018957
Rh      80.74842314      72.17517113      76.43767398  T       5.00000000      -1.36573155       2.51870940       0.35554357       0.00139150      -0.01115653      -0.00092846       3.91542077
Rh      78.36985119      70.10431619      83.05802844  T       5.00000000      -2.56582060       0.78733520       0.44058049      -0.00521733       0.01777028      -0.01846132       3.64674330
Fe      79.71219688      70.88474500      79.97049110  T      -5.00000000       0.33007706       2.48366116       0.06598654      -0.00029321      -0.00102466       0.00334709       4.42438221
Fe      77.50301390      73.30476427      75.40388890  F      -5.00000000       0.00000000       0.00000000       0.00000000       0.29078549      -0.14564541       0.22420126       4.35314512
Fe      81.89899084      69.16465675      75.42287921  T      -5.00000000      -3.09525205       0.24902965       1.77726575      -0.00738860       0.00564300      -0.00224103       3.86203527
Fe      75.41373924      69.20221916      81.59247129  T      -5.00000000      -1.86089606      -0.00831640      -0.97862612       0.00445832      -0.01084259       0.01312329       3.90288019
Fe      75.40388890      73.30476427      77.50301390  F      -5.00000000       0.00000000       0.00000000       0.00000000       0.23204617      -0.15998551       0.19343731       4.34451389
Fe      79.61197864      66.95628968      75.23639736  T      -5.00000000      -0.71351116       1.77741616      -1.53897682       0.00544260       0.00095436      -0.00164014       3.77435064
Fe      77.55362155      68.85562089      79.67408633  T      -5.00000000       1.87276777      -0.60750738      -0.58730283       0.01497687       0.00751027      -0.00426602       4.43356848
Fe      81.51073247      73.16444307      79.69960999  T      -5.00000000      -1.52885125      -1.18182054       0.04299313      -0.00512163       0.00309184       0.00650501       4.23037434
Fe      77.61401661      71.18148261      77.61420592  T      -5.00000000      -0.27423008       4.01320424       1.55471122       0.00670898      -0.01454912       0.00369792       4.38673925
Fe      75.40388890      71.20563927      75.40388890  F      -5.00000000       0.00000000       0.00000000       0.00000000      -0.11052185      -0.20181665      -0.05772898       4.35981750
Fe      79.79316613      69.04444707      77.50437848  T      -5.00000000       1.42904642      -1.84514602       0.50328550      -0.00354502       0.00838384       0.00589976       4.42188835
Fe      79.66921714      73.19340677      81.82792065  T      -5.00000000       2.84552589       2.24797479      -0.36138926       0.00495269      -0.00954185      -0.00914586       4.26940250
Fe      75.35282906      66.80988915      79.48127332  T      -5.00000000       2.07571168       0.60261826      -2.14825880      -0.04493725      -0.00799848      -0.00007057       3.91499114
O       77.64830731      69.13277842      77.56741601  T       0.00000000      -0.86604038      -1.24207685       0.84340433      -0.00281927       0.00882456       0.00471574       0.32550064
O       81.76924513      73.38913735      81.58254410  T       0.00000000       0.56470680      -0.03357924      -0.38532007      -0.00087970       0.01712488      -0.00047787       0.19740307
O       79.58293886      75.13766606      81.91676035  T       0.00000000       1.39120635      -0.28964592      -0.07934736      -0.00019255      -0.01191610      -0.00536393       0.30781767
O       79.79167375      67.11238091      77.14331299  T       0.00000000       0.28029082       0.95841645       0.11805211       0.01357804      -0.01239590       0.00167673       0.07773317
O       75.50387825      68.94805150      79.55088485  T       0.00000000       0.03346348      -0.37807546      -0.40882112       0.00663561       0.00121403      -0.00995880       0.27965763
O       77.46187090      71.24678127      75.44503190  F       0.00000000       0.00000000       0.00000000       0.00000000      -0.06890023       0.08844864       0.32718727       0.33822712
O       75.44503190      71.24678127      77.46187090  F       0.00000000       0.00000000       0.00000000       0.00000000       0.31110081       0.06014365      -0.08879215       0.33744490
O       79.78591097      69.11260920      75.42888673  T       0.00000000      -1.31485673       0.51649627       0.07531821       0.00668085      -0.00270128       0.00559288       0.27829522
O       77.26748137      66.94386158      79.51082917  T       0.00000000      -1.41176138      -1.52283076      -0.04088918       0.02562781       0.00885685       0.00200743       0.11133590
O       80.83216551      75.04371202      79.34276080  T       0.00000000       0.72785259      -0.00665358       0.59908118      -0.00163068       0.00041795       0.00239412       0.29839030
O       77.62423834      73.37464841      81.95361891  T       0.00000000       1.21992890      -0.36259874       1.35900893      -0.00329971      -0.00004931       0.00582902       0.30893731
O       81.78112066      69.32178195      77.38389778  T       0.00000000       0.35146449      -1.06005579       0.17057034       0.00481805       0.00500527       0.00818475       0.23833123
O       79.56901112      71.04270777      77.72419306  T       0.00000000      -1.16779555      -0.53104586       0.48606180      -0.00447142      -0.00010210      -0.00422198       0.28457189
O       79.54735036      71.23452824      81.90592920  T       0.00000000      -1.26973753       1.26459817      -0.84328904      -0.00063855       0.00267022      -0.00147271       0.28287390
O       75.44503190      73.26362127      75.44503190  F       0.00000000       0.00000000       0.00000000       0.00000000       0.33770156      -0.30489022       0.34451827       0.30323231
O       83.75706897      75.24818377      78.03434379  T       0.00000000      -0.32179183       0.23988671       1.06351714       0.04633880      -0.05158216      -0.03053425       0.11480290
O       79.51629986      72.92911960      79.82870632  T       0.00000000       0.84133622       0.28372714       0.08361649       0.00039110       0.01055592       0.00461662       0.35808206
O       79.56658014      68.87973682      79.55201540  T       0.00000000      -0.00422067       0.80094923       2.93064720      -0.00729618      -0.00585073       0.00028047       0.23914045
O       77.46187090      73.26362127      77.46187090  F       0.00000000       0.00000000       0.00000000       0.00000000       0.08065172      -0.27863979       0.09383296       0.35550472
O       77.58515599      70.98638113      79.62750520  T       0.00000000      -0.53846469      -0.47581820       0.80973420      -0.01424992      -0.00060605       0.00067431       0.34528646
O       81.66581873      71.10959574      79.85754097  T       0.00000000       0.34885117      -0.77613928       0.95815636      -0.00472605       0.00342077      -0.00738764       0.34418112
O       77.55026694      75.38972504      83.88066341  T       0.00000000      -0.02491863       0.69789240      -1.50009579      -0.00794682      -0.00174249       0.00013078       0.16080970
O       82.09154839      72.77230861      77.85890154  T       0.00000000      -0.08455318      -0.15254289       0.03058813       0.00958624       0.00559551      -0.00711228       0.20202154
O       77.37714800      69.02180319      81.68745526  T       0.00000000      -0.78054236       0.53506979       0.21082609       0.00762457      -0.01007222      -0.00659929       0.13501883
Rh      67.96227813      67.78359971      74.59305243  T       5.00000000       0.12916390      -0.07557695      -1.56416693      -0.07189863       0.04631989      -0.03420022       4.02757025
Rh      74.37426961      74.32624072      82.76075920  T       5.00000000      -0.35361714      -0.20761403       1.17455831      -0.01230559      -0.00283945      -0.01306472       4.38995218
Rh      72.17849577      67.78331665      80.74654993  T       5.00000000      -0.17137006      -2.86201440       1.35498711       0.01207918      -0.00190761       0.01434067       3.45100832
Rh      70.09691470      74.32873657      78.60467992  T       5.00000000       0.16595598       0.06593135       1.52505939       0.00005880       0.00037289       0.00240377       4.36229229
Rh      68.14160263      72.29501824      80.73603646  T       5.00000000       1.33036989      -0.65649035       2.12760025      -0.00219695       0.00002417      -0.00133672       3.81597757
Rh      74.32351023      70.08648041      78.58019722  T       5.00000000      -0.60494427       0.39265051       0.50524380       0.00194725      -0.00154571      -0.00342471       4.37962723
Rh      72.25520127      72.25520127      76.45345090  F       5.00000000       0.00000000       0.00000000       0.00000000      -0.34828693      -0.57256055       0.30995670       4.36996603
Fe      71.15176888      71.15553359      79.71629476  T      -5.00000000      -1.70647346      -0.81444912      -0.58518781      -0.01041874      -0.00939387      -0.00557555       4.41983604
Fe      69.00085909      73.27767798      75.46808499  T      -5.00000000      -1.27316089      -2.44626735      -1.55252566       0.00322518      -0.01072556       0.00875489       4.40090179
Fe      73.26338388      68.97422539      75.46244623  T      -5.00000000      -2.36054258      -1.59256723      -0.51596246       0.00037083      -0.00540143      -0.00978102       4.41580868
Fe      73.27848860      66.81352601      77.48912028  T      -5.00000000       0.53569213       0.10400790      -1.65960701       0.00995934       0.00147253       0.00532776       4.03725529
Fe      66.82874623      73.20727851      77.43741949  T      -5.00000000       1.33381916      -1.12500862      -0.32497542       0.00237074       0.00012690       0.00605727       3.93474340