818
Lattice="150.0 0.0 0.0 0.0 150.0 0.0 0.0 0.0 150.0" Properties=species:S:1:pos:R:3:move_mask:L:1:initial_magmoms:R:1:momenta:R:3:forces:R:3:magmoms:R:1 XYZ=T energy=-4317.4248046875 stress="-1.3813290706821135e-06 3.77739475254657e-08 1.831008518138333e-07 3.778967894163543e-08 -2.388213715676102e-06 -2.14573091739112e-07 1.8307369487047254e-07 -2.1462972199515207e-07 -2.570794777057017e-06" free_energy=-4317.4248046875 pbc="F F F"
Fe      73.13930315      77.31273889      83.88020296  T      -5.00000000       4.11004139       2.29465837      -0.36328368       0.01118758       0.02971102      -0.00249708       4.03508759
Fe      71.12607505      75.32635760      83.95788905  T      -5.00000000      -0.76628557       1.08871869       3.30989621      -0.03374705      -0.07197891      -0.00715356       3.80559945
O       71.18321577      77.28478251      83.79605226  T       0.00000000      -0.07611347       0.62220550      -0.80274949      -0.01373830      -0.00422643      -0.00189524       0.05656376
O       73.12929532      75.37961201      83.94960073  T       0.00000000      -0.73017290      -0.02624738      -1.07181160       0.04933202      -0.04379395      -0.01440893       0.26690286
Fe      77.17127896      73.40998622      83.94271722  T      -5.00000000      -0.63930799       0.34106501      -1.08155246      -0.01003761       0.01516533      -0.01506297       4.01266289
Fe      75.17603554      71.39870430      83.98893174  T      -5.00000000       2.55929256       0.10093884      -0.44899433      -0.01300928       0.00092989      -0.00156105       3.81299686
O       77.18368630      71.44894763      83.99955880  T       0.00000000      -0.66995109      -0.44612063      -0.40481656       0.01131611      -0.00178120       0.00498174       0.05380064
O       75.23017525      73.38804993      84.01126965  T       0.00000000       0.18607261       0.91596963      -0.87390830      -0.00570662       0.03216819      -0.02611809       0.27375889
Fe      73.54022849      84.03352462      77.48153937  T      -5.00000000       2.05381274      -1.36891708      -1.33284706      -0.07396626      -0.00201238      -0.03029313       3.84922910
Fe      71.43065510      84.19484139      75.38157865  T      -5.00000000       2.39776211       1.51277710      -0.06665373       0.02697046      -0.00566459       0.07289591       3.85457563
O       71.51164238      83.98403595      77.40448362  T       0.00000000       0.78829833      -0.17345184       0.75618663       0.02324776       0.01197937      -0.05150631       0.10470212
O       73.43371405      84.00001452      75.49627589  T       0.00000000       0.20489210       0.44908272       0.25339056      -0.03522982       0.03212457       0.07787120       0.23620981
Rh      76.45345090      76.45345090      76.45345090  F       5.00000000       0.00000000       0.00000000       0.00000000       0.30621612       0.44320655       0.31393346       4.38547993
Rh      80.54543468      76.69566961      80.88237571  T       5.00000000      -0.98486154       1.16195505      -1.63528144      -0.00599871       0.03355641      -0.01501872       4.34715319
Rh      75.63625875      81.31542493      81.62192238  T       5.00000000       2.43919798      -0.63135899       1.17993024       0.04139140       0.01340523       0.03068626       4.27307415
Rh      80.91357587      80.42582422      76.35997857  T       5.00000000      -0.05380307      -0.50782058       1.60215701      -0.02609542       0.00635430      -0.00585335       4.31229925
Fe      78.34949781      79.33224861      81.44482926  T      -5.00000000       2.03230804       0.15067370       0.09915616       0.04636666      -0.03448948      -0.00083330       4.30681562
Fe      77.73037604      81.64657141      75.63481606  T      -5.00000000      -3.66730413      -0.06415846       1.81445359       0.03469699       0.01724818      -0.00202218       4.42682028
Fe      81.88776839      77.46860091      75.41125256  T      -5.00000000       0.70990714      -0.07450575      -1.86415526       0.02149024       0.01103280      -0.00018834       4.42923307
Fe      81.75393250      75.54104989      77.66189719  T      -5.00000000      -0.52042007      -2.13143132      -2.35901363      -0.00883731       0.00167400       0.00172037       4.41792583
Fe      77.56140199      75.52946648      81.91287758  T      -5.00000000       2.59754068      -1.89483903      -0.07233296      -0.01467169      -0.01878929      -0.00269468       4.43800926
Fe      75.37097460      77.49911271      81.89444926  T      -5.00000000       1.07495669      -1.31963753      -2.15756686      -0.01289982      -0.03232604      -0.00289956       4.42717123
Fe      75.54196828      81.79718560      77.70849337  T      -5.00000000      -0.58564088       2.14715282       1.07420925       0.00284419      -0.06212601       0.01981711       4.42317724
Fe      79.60213890      75.40388890      75.40388890  F      -5.00000000       0.00000000       0.00000000       0.00000000       0.37537518       0.00526112      -0.07925478       4.42084932
Fe      77.49381075      77.40541991      79.49959354  T      -5.00000000       0.76645408      -0.57074324      -1.30450795       0.00995059      -0.01149164       0.00060475       4.39735222
Fe      78.50710633      80.49530129      78.68115091  T      -5.00000000       0.17565387       0.44754647      -0.81105514       0.07609700      -0.03121294       0.00689329       4.31147194
Fe      75.40388890      79.60213890      75.40388890  F      -5.00000000       0.00000000       0.00000000       0.00000000       0.51420867       0.47108126       0.72218585       4.38115072
Fe      79.60521020      77.61409300      77.54171028  T      -5.00000000       1.65022551       0.86428338       3.11356328       0.02260287      -0.00656173      -0.00107193       4.45434570
Fe      75.40388890      75.40388890      79.60213890  F      -5.00000000       0.00000000       0.00000000       0.00000000      -0.08596063       0.23076749       0.44269234       4.41279459
O       77.54415690      77.54415690      77.54415690  F       0.00000000       0.00000000       0.00000000       0.00000000       0.08552301      -0.43054217      -0.11155625       0.31877941
O       79.61116003      75.47007655      77.39917990  T       0.00000000       1.24346366      -0.62737253       0.29024764      -0.01100546       0.01747483      -0.01768804       0.32735497
O       75.44984453      77.37320177      79.70457141  T       0.00000000      -0.07445900      -0.23714903      -0.20658857      -0.00261441       0.03097695      -0.02226263       0.33895817
O       77.38236547      79.66593912      75.30820646  T       0.00000000       0.07459651       0.48536201      -0.00284537       0.02982587       0.01242644      -0.00256906       0.32863981
O       75.18282129      79.77835799      77.47752802  T       0.00000000      -0.38803850      -1.35414263      -0.01987559       0.03979090       0.01092547      -0.00349545       0.32704848
O       79.68640353      77.44183497      75.41920907  T       0.00000000       0.03336783       0.29321893      -0.38680668       0.02098918      -0.01543942       0.01736057       0.31576204
O       77.42120410      75.38635556      79.74591796  T       0.00000000       0.83849990       0.32804988      -0.02085250      -0.00668457      -0.00641525      -0.01294678       0.32281071
O       76.04601416      83.17420256      81.62642715  T       0.00000000      -0.72876527       1.16512430      -0.31707272      -0.00401724      -0.07886934      -0.00736208       0.06573702
O       81.57808900      77.44181850      77.34144473  T       0.00000000      -0.18938940      -0.93851388      -0.00539677       0.00323034      -0.00062677      -0.00998737       0.31593221
O       79.67466508      79.56861098      77.51844575  T       0.00000000      -0.38747767      -0.80148820       0.10368985      -0.04589810       0.00688729       0.04819340       0.31367156
O       77.27354629      80.57111524      82.41880369  T       0.00000000      -0.68048175      -0.17154087       0.19890435      -0.05828838       0.03382440       0.00225937       0.17064705
O       75.56358579      81.67616864      75.57874979  T       0.00000000      -0.45758421      -0.80943609      -1.45146319       0.02557856      -0.02626486       0.01969421       0.31700709
O       75.42030446      75.45159637      81.68802270  T       0.00000000      -0.42645209       0.86030675      -0.43978576      -0.00322366      -0.01207963       0.00731122       0.32300183
O       79.32622547      80.68919207      80.36583889  T       0.00000000       0.91446091       0.47420647       0.43532703       0.04345229       0.00868270      -0.00143582       0.17434986
O       79.44829646      77.49412984      79.48603662  T       0.00000000      -0.30522654      -0.33384877       0.11293143      -0.00681469      -0.00061274       0.02362251       0.30103195
O       82.28645978      76.92060088      81.65272619  T       0.00000000       1.30000235       0.40468732      -0.10311121       0.00594258      -0.00802625       0.01536742       0.08298369
O       77.51143229      81.64953336      77.60327105  T       0.00000000      -0.14325395      -0.04516208       0.12468638      -0.04527655       0.02369525      -0.05321143       0.33704963
O       77.26569767      79.38999185      79.68108667  T       0.00000000      -0.61284356       0.99471312       0.38822494      -0.05609128      -0.02839823      -0.01282766       0.34636623
O       79.88121058      78.33298162      81.94380497  T       0.00000000      -0.30766860      -1.28264050       0.70361588      -0.02241360      -0.01968226      -0.02546006       0.17821008
O       81.62944393      75.40961325      75.43202114  T       0.00000000      -0.35251012       1.15827027      -1.15000827      -0.01919608       0.00938314       0.03643306       0.31645137
O       82.11024389      81.17136047      77.59549464  T       0.00000000       0.14166281      -1.55888306      -0.27684117       0.05604095       0.06505603       0.04237005       0.09482956
O       77.34585120      77.49436467      81.62996508  T       0.00000000       0.94806356      -0.75712507      -0.25529082       0.02233789      -0.00414566      -0.01087870       0.31284881
Rh      67.99464303      76.51325629      76.38144466  T       5.00000000      -0.43742827      -1.98672929       1.11701402      -0.01280087       0.00494567      -0.02557719       4.35123301
Rh      72.09889972      76.42590475      80.67335209  T       5.00000000      -2.32632737       0.33520805       0.60774141      -0.00693986       0.00221847       0.00542922       4.35865164
Rh      71.14564519      82.05387639      77.55467495  T       5.00000000      -2.10875265       1.18160864      -0.56845717       0.03567861      -0.04175292       0.00272955       4.38799191
Rh      75.22602122      79.34360174      79.40433272  T       5.00000000       1.78340456      -0.21233969       1.51456457      -0.00341788      -0.04793465       0.02074069       4.41041708
Rh      73.14039108      79.76466966      77.42218646  T       5.00000000       1.29117164       0.12211410      -0.74228023      -0.04113808      -0.00149184      -0.01163219       4.11551428
Rh      69.90472044      78.44795437      82.79122047  T       5.00000000       1.04929609       0.02533451      -1.67016926      -0.00603274       0.00655561      -0.00227385       3.37737584
Fe      71.00105733      79.73036823      79.71698709  T      -5.00000000      -0.88793356      -0.49911223       1.97494446      -0.00185573       0.00761954      -0.01353079       4.42162037
Fe      69.07935448      81.85755512      75.40145162  T      -5.00000000       0.53946553       0.92083132      -1.30588171       0.02819729       0.00229743       0.01490802       3.89930868
Fe      73.30476427      77.50301390      75.40388890  F      -5.00000000       0.00000000       0.00000000       0.00000000      -0.03039315       0.17172489       0.27713490       4.31316042
Fe      73.30476427      75.40388890      77.50301390  F      -5.00000000       0.00000000       0.00000000       0.00000000      -0.06968242       0.47122020       0.09465097       4.33748245
Fe      68.85109000      75.34939856      81.58795254  T      -5.00000000       0.31344703       1.07646050      -0.87198922       0.00505638      -0.02230951       0.02445678       3.78725696
Fe      71.20563927      75.40388890      75.40388890  F      -5.00000000       0.00000000       0.00000000       0.00000000      -0.06485939       0.02005625       0.12806238       4.36278057
Fe      68.86354330      77.52527766      79.54415172  T      -5.00000000      -1.59975886       0.57952337      -1.32667975       0.00359285       0.00158653       0.01735619       4.43114281
Fe      73.24201033      81.85307985      79.85088443  T      -5.00000000       0.95357231       1.96661199      -0.41543968      -0.02404509      -0.01352435      -0.03595057       3.91938663
Fe      73.10186799      79.54378976      81.62824204  T      -5.00000000      -2.69918124       0.65570860       0.03888858      -0.01671726      -0.02660481       0.01643485       4.27826405
Fe      68.94297745      79.77912975      77.47174958  T      -5.00000000       0.71947458      -1.42176668      -0.30473258       0.04566696      -0.00048642       0.00857931       4.41890669
Fe      66.86386208      79.53971077      75.33862133  T      -5.00000000      -1.32948535       2.50673759       0.09057418       0.00650752      -0.00931866      -0.04346177       3.85344529
Fe      71.19220192      77.56247413      77.54726144  T      -5.00000000       0.63759127       2.59735891       4.10464345      -0.00580154       0.01818697      -0.00174058       4.34853125
Fe      66.83762310      75.37848360      79.07072060  T      -5.00000000      -0.78494435      -1.25803185       0.24701466      -0.02635744      -0.01813433       0.01270336       3.90815616
O       69.16528317      77.63536436      77.45271275  T       0.00000000      -0.26585467       0.43423658       1.19220960       0.00555156       0.00393391       0.01339427       0.33531296
O       73.60161093      81.43074218      81.86857197  T       0.00000000       0.74637952       0.41780437      -0.70166439       0.01196265       0.01954561       0.00901127       0.15772986
O       71.24678127      75.44503190      77.46187090  F       0.00000000       0.00000000       0.00000000       0.00000000       0.09349382       0.23249143      -0.15164104       0.33843747
O       75.27230874      81.38066853      79.65704962  T       0.00000000      -0.33223128      -0.86268740       0.09555827       0.00565675       0.00744194      -0.02799390       0.35680240
O       66.99864431      77.29148650      79.07710995  T       0.00000000      -0.07087337      -1.08151749       1.31141950       0.02301325       0.01594859       0.00145658       0.10072166
O       69.00003346      79.76503482      75.42172788  T       0.00000000       1.05916006      -0.18902278       0.29226190      -0.05099869      -0.00695029       0.00452125       0.27442092
O       67.02999159      79.74163334      77.22623486  T       0.00000000       0.64020266      -0.01216255       0.86534526      -0.01350121      -0.00001939       0.02878638       0.12889570
O       75.08209592      79.37782895      81.45382230  T       0.00000000      -0.20149559       0.09127443      -0.40058165       0.00618875       0.06315696      -0.03525952       0.27115810
O       71.24678127      77.46187090      75.44503190  F       0.00000000       0.00000000       0.00000000       0.00000000       0.10272980      -0.04149282       0.17521003       0.33609968
O       68.88944385      75.46591416      79.46932356  T       0.00000000       0.17976380      -0.34390921      -2.39115970      -0.00462273       0.03204057      -0.01330066       0.27317467
O       73.26362127      77.46187090      77.46187090  F       0.00000000       0.00000000       0.00000000       0.00000000      -0.85308242      -0.11239716      -0.59986281       0.34792829
O       71.07586101      79.61820886      77.64359149  T       0.00000000      -0.89303266      -0.64331555       1.81692931      -0.02094333      -0.01386416       0.00101763       0.25865674
O       71.18095019      79.51837639      81.62053470  T       0.00000000      -0.60168668       0.86248161      -0.98559881       0.00633782       0.00475518       0.00232139       0.19688267
O       75.02962721      77.66240237      83.81046463  T       0.00000000      -1.61489605       0.30942449       0.98614958       0.00236285      -0.00158177       0.04548910       0.17632498
O       75.39772718      83.69313281      77.81412178  T       0.00000000       0.00923931      -0.69345509       1.16388232       0.07063523       0.05300778       0.02192477       0.12682083
O       71.20908516      81.71228239      79.53205639  T       0.00000000       0.08764469       0.02220357       0.52845796       0.02474520      -0.00299209       0.01196185       0.20949322
O       70.99526799      77.55618610      79.54696084  T       0.00000000       0.72500251      -0.60922145      -0.50529661      -0.00936131      -0.00517483      -0.02582133       0.33824086
O       73.22829837      77.49855193      81.81829052  T       0.00000000       1.45231816       0.24232860      -0.11637841      -0.01614608      -0.00002186      -0.00363165       0.30753946
O       69.24776123      81.74079738      77.35348601  T       0.00000000      -0.34952435       1.22331535      -0.93424673      -0.03248614      -0.04114623      -0.00054520       0.30826432
O       69.03516010      79.52265404      79.46347235  T       0.00000000       1.71234419       0.23003270       0.55148751      -0.03011331      -0.01618497       0.00155172       0.25395989
O       73.09508646      79.66087273      79.61997509  T       0.00000000       0.38883994       0.18257852      -0.14817155       0.02717664       0.00244684      -0.00252618       0.29728752
O       73.26362127      75.44503190      75.44503190  F       0.00000000       0.00000000       0.00000000       0.00000000      -0.28736356       0.20610169       0.24078026       0.29826218
O       73.24506755      81.91213914      77.75009869  T       0.00000000      -0.33820479      -0.59180895      -0.35777215       0.01694643      -0.00196012       0.01930636       0.19883186
O       68.83326693      77.32038673      81.51545524  T       0.00000000       0.03656102      -0.61193074       0.72255968      -0.00757587       0.00992484      -0.00313878       0.12010890
Fe      83.80169802      73.33421370      77.39464459  T      -5.00000000       0.01736736       1.30704586      -0.66858793      -0.01069339       0.01110666       0.02462121       3.87101722
Fe      83.78686830      71.30117290      75.36695510  T      -5.00000000       1.29260840      -1.14549796      -2.30119088       0.00788569       0.02393565       0.02355850       3.97891665
O       83.58620387      71.34957836      77.30430371  T       0.00000000      -0.65603363      -1.13847786       0.23689379       0.00569414      -0.01208656      -0.00417660       0.04543391
O       83.85266050      73.25409398      75.40541447  T       0.00000000      -0.00676664       1.55499504      -0.03256970      -0.00066593      -0.00582847       0.00614143       0.26362172
Rh      76.50021683      67.98134355      76.51821474  T       5.00000000      -0.11502738      -2.49886832      -2.84267874       0.01475300       0.01126833      -0.00484319       4.36039829
Rh      78.60450247      74.38305395      78.59971763  T       5.00000000      -1.32460382       1.34206534      -1.49447231      -0.00350416       0.03082442      -0.00761294       4.34366894
Rh      76.46631287      72.26310153      80.77814710  T       5.00000000      -0.25915989       0.04294133      -0.85800014       0.01749128       0.00035515       0.01725362       4.34488773
Rh      82.71305369      70.07259735      78.59729018  T       5.00000000       0.10057425       1.56114275       0.93188344       0.00943520      -0.00238426       0.02676196       3.45375323
Rh      80.67681567      72.22280221      76.48704383  T       5.00000000       2.92986559      -0.68426458      -0.84122169      -0.01921312       0.02680219       0.00580296       4.36852312
Rh      78.50405242      70.40125870      83.01046515  T       5.00000000       0.97205026      -0.46757363       1.94632500      -0.03890847      -0.01948112       0.00840059       3.59800315
Fe      79.72918265      71.11021384      79.80789814  T      -5.00000000       1.07065872       2.98865298      -0.90899587       0.00309253       0.00985128      -0.03523163       4.43482685
Fe      77.50301390      73.30476427      75.40388890  F      -5.00000000       0.00000000       0.00000000       0.00000000       0.26219311      -0.10126734      -0.11042570       4.33286715
Fe      81.62147720      68.99788014      75.40511932  T      -5.00000000      -1.71101223       0.22022244       0.48083119       0.02714145      -0.00962837       0.00313587       3.89636588
Fe      75.39463290      69.18907969      81.83863558  T      -5.00000000       2.20808641      -0.60150715      -0.24750042      -0.02445938       0.00260739       0.00847448       3.85256290
Fe      75.40388890      73.30476427      77.50301390  F      -5.00000000       0.00000000       0.00000000       0.00000000       0.05842599      -0.10046452       0.06272502       4.33886242
Fe      79.39861482      66.82206372      75.45348467  T      -5.00000000      -1.02799490       3.61726132      -2.26564110      -0.02732880      -0.00509216      -0.03589289       3.84158921
Fe      77.59793583      68.99283505      79.85736196  T      -5.00000000      -0.51144406       0.26146108      -0.28661433       0.05444376       0.00629193      -0.03502265       4.42876101
Fe      81.53931659      73.46668645      79.65184937  T      -5.00000000       1.14317383       2.42772935      -1.19492941      -0.00945306      -0.01769967       0.04852289       4.28765535
Fe      77.55645377      71.16403736      77.60396338  T      -5.00000000      -0.97451064      -0.71378141      -1.55104153      -0.01194460       0.00823578       0.00262949       4.37675047
Fe      75.40388890      71.20563927      75.40388890  F      -5.00000000       0.00000000       0.00000000       0.00000000       0.11053249      -0.04470262       0.04132438       4.37087250
Fe      79.63228533      68.91968008      77.64716213  T      -5.00000000       1.73742708       2.06202456       1.09894304      -0.02744600       0.00608885       0.02944709       4.43098497
Fe      79.64808102      73.42726831      81.83710951  T      -5.00000000      -1.45280851       0.84156052      -0.79183207       0.03324577      -0.03451146      -0.03480762       4.21962643
Fe      75.53700471      66.87389673      79.60204864  T      -5.00000000      -0.62827036       2.54495791       0.03949051      -0.01827945       0.02226818      -0.00291886       3.82001805
O       77.52596605      69.17172923      77.67774376  T       0.00000000       0.61452642       1.30017359      -0.94511640       0.01545417      -0.01014686      -0.00637704       0.33540422
O       81.55559990      73.43377434      81.56378252  T       0.00000000       1.07890458       1.20701218       0.43248870      -0.06761925      -0.03180640      -0.04946117       0.08990726
O       79.48768860      75.37569434      81.81542153  T       0.00000000       1.04990888       0.46308338       0.29900749      -0.01495866       0.00186142       0.01359392       0.30591923
O       79.30265440      67.05333343      77.36314160  T       0.00000000       0.99983108       1.23256434      -1.90791107       0.01373462      -0.01288339       0.00291066       0.11880025
O       75.51157571      69.04020957      79.76159443  T       0.00000000      -1.64115772       0.34786940       1.00995154       0.02097520      -0.01252905       0.01739898       0.26936382
O       77.46187090      71.24678127      75.44503190  F       0.00000000       0.00000000       0.00000000       0.00000000      -0.08711731       0.02638310       0.33004183       0.34315962
O       75.44503190      71.24678127      77.46187090  F       0.00000000       0.00000000       0.00000000       0.00000000       0.31894290       0.14666378      -0.04072082       0.33872315
O       79.56179832      68.97550480      75.54302515  T       0.00000000       0.62249866      -0.18915512      -0.11310561       0.00120461       0.00638276       0.00725564       0.27984092
O       77.41041353      67.07926911      79.85085152  T       0.00000000       1.84036749       0.17691519      -0.90790464       0.00989754      -0.00495062       0.00886922       0.12242791
O       81.38947602      75.37313878      79.55982638  T       0.00000000       0.42256321       0.68354240       0.42847663      -0.00583574       0.01171368      -0.00034031       0.30949780
O       77.59808772      73.38163584      81.91557648  T       0.00000000       1.09367173      -1.80715698      -0.17525992      -0.00239908      -0.00666827       0.01919054       0.28116581
O       81.59763575      68.97436816      77.36840322  T       0.00000000       1.03606091      -0.13842010       0.39379384       0.00674549       0.01246846      -0.00772198       0.11814049
O       79.55475217      71.10676041      77.61762715  T       0.00000000      -1.39780952       0.08809752      -0.76243416      -0.00262093      -0.00409962      -0.02157009       0.33717817
O       79.65747839      71.39632011      81.79475160  T       0.00000000       1.28785124       0.67841965       0.41702670       0.01752239       0.03026901       0.00832438       0.14769527
O       75.44503190      73.26362127      75.44503190  F       0.00000000       0.00000000       0.00000000       0.00000000       0.20460105      -0.29932177       0.25092646       0.29598969
O       83.65800372      75.21698666      77.66255322  T       0.00000000      -0.46539616      -0.31120115      -0.14888562      -0.00696374       0.00402586       0.01603425       0.12118730
O       79.55108608      73.16766241      79.72305907  T       0.00000000      -0.41449194       0.50011021      -0.63347978       0.01502484      -0.01127216       0.02402773       0.35204524
O       79.54066781      69.20432153      79.60547571  T       0.00000000       0.42842108      -0.70788355       0.87448572      -0.00164643      -0.04015380      -0.00260054       0.34463799
O       77.46187090      73.26362127      77.46187090  F       0.00000000       0.00000000       0.00000000       0.00000000      -0.06773496      -0.27533829       0.00636327       0.33263272
O       77.56989879      71.13674032      79.64011782  T       0.00000000      -0.02961871       0.02543154      -0.08793194      -0.03474636       0.00614201       0.00604111       0.34487686
O       81.67464706      71.42782033      79.61499075  T       0.00000000       0.01993282      -0.49590973       1.10017466      -0.00052677      -0.00625516      -0.00420958       0.17514847
O       77.31964832      75.30087874      83.82025995  T       0.00000000       0.21375246      -0.56427505       0.56622761      -0.00564238      -0.02846712      -0.02992621       0.13679323
O       81.69201711      73.40900313      77.62968769  T       0.00000000       0.55703931       0.34844458       0.85104908       0.00330047       0.00915106      -0.02788985       0.27544871
O       77.37711101      69.21728533      81.82944793  T       0.00000000       1.78748511       1.11012845      -1.23703247       0.01534986       0.00244242       0.02529977       0.13039964
Rh      68.49731163      68.16608378      75.70308961  T       5.00000000       1.88137984      -0.36309894       0.11135095      -0.02831410       0.03656469      -0.01202071       4.17271900
Rh      74.20991569      74.37006779      82.80524309  T       5.00000000       0.89742121      -2.20987905       0.84373234       0.01518965       0.00157735       0.03589161       4.37653589
Rh      72.45301942      68.12662706      80.58894910  T       5.00000000      -0.63850384      -0.21826027      -0.31045196       0.01647628       0.01058501       0.04492427       3.67288923
Rh      70.05751938      74.31505533      78.50901302  T       5.00000000      -3.89600266       0.65111369       2.85192838       0.00629398      -0.01789173      -0.00387498       4.37456989
Rh      67.75953639      72.22919386      80.21810494  T       5.00000000      -0.25699098      -0.19119526       2.20986644      -0.00009314      -0.01731457      -0.00066147       3.57370043
Rh      74.41447180      70.13953831      78.68526142  T       5.00000000       2.64486556       0.10135595       1.95463398      -0.00875518       0.01691025      -0.00787196       4.35868073
Rh      72.25520127      72.25520127      76.45345090  F       5.00000000       0.00000000       0.00000000       0.00000000      -0.27297041      -0.31021255       0.28886455       4.36959934
Fe      71.10398298      71.14782819      79.65829973  T      -5.00000000       2.00870458      -0.59330049      -0.35061068       0.00817286       0.00794963       0.02321988       4.41598701
Fe      69.01447374      73.25803940      75.32443309  T      -5.00000000       1.36526200       0.73021231      -1.28351116      -0.02040148      -0.02345687       0.02522007       4.41395855
Fe      73.39103355      68.95867582      75.46149387  T      -5.00000000      -1.79449561       1.26691676       1.19764854      -0.01757759      -0.01892598       0.00751686       4.40940762
Fe      73.49260503      66.94196070      77.57176731  T      -5.00000000      -0.91338693       1.01086880      -1.43733061      -0.01103854       0.00669986      -0.01196228       4.22879696
Fe      66.77764428      73.23074158      77.18079509  T      -5.00000000       6.08171899       0.47028769      -0.81941354       0.01462200       0.00660133      -0.01439305       4.06199169