140
Lattice="150.0 0.0 0.0 0.0 150.0 0.0 0.0 0.0 150.0" Properties=species:S:1:pos:R:3:move_mask:L:1:initial_magmoms:R:1:momenta:R:3:forces:R:3:magmoms:R:1 XYZ=T energy=-498.7588806152344 stress="1.9269168660684954e-07 7.226461917753113e-08 -1.0079260448492278e-07 7.227474441151571e-08 1.0682853002208503e-07 -3.656537828078399e-08 -1.0079001810936461e-07 -3.6572703976389676e-08 3.400676007458969e-07" free_energy=-498.7588806152344 pbc="F F F"
Rh      76.68350150      76.13201786      75.29118016  T       5.00000000      -0.39907578       2.25500914      -1.27567828       0.00330660       0.06113866      -0.03061951       3.80139589
Fe      73.66054069      77.40974627      74.13491153  T      -5.00000000       0.16779535       1.08189009      -2.74287286       0.00632355      -0.00790842      -0.00700685       3.53046846
Fe      73.75402184      76.45284689      77.02523547  T      -5.00000000      -0.60388917      -1.55478438      -2.08712057      -0.01118231       0.05788697      -0.00944328       3.48624992
O       73.36625155      75.79072175      75.17730733  T       0.00000000      -0.23249990      -0.64278192       0.79094738       0.02103667      -0.05531210      -0.04984739       0.15526927
Fe      76.86803126      72.80462043      75.70160893  T      -5.00000000      -0.27309157      -0.46377342       3.45420879       0.02887660       0.01430039       0.00513434       3.45599174
Fe      75.02682694      74.03980106      77.71203365  T      -5.00000000      -0.59703156      -1.37631917      -1.45446708       0.02013429      -0.00172818      -0.00985742       3.38467550
O       74.94754751      73.23036560      75.91370594  T       0.00000000      -0.22769607      -0.02381407      -0.10951053       0.00361284       0.03104904       0.02121902       0.12194076
O       75.68844513      75.87601343      76.95662155  T       0.00000000      -0.44121426      -0.14058938      -0.39374198       0.03718266      -0.03536707      -0.02821675       0.06013688
O       73.27102745      74.83397106      77.99304422  T       0.00000000       0.26373510       0.50064852       0.28184941      -0.01074874      -0.05542193       0.00360638       0.04120825
Fe      77.12769705      73.75938900      73.06619714  T      -5.00000000      -1.63332917       0.51466456       1.74929155      -0.00093478      -0.00414445      -0.02439833       3.43718529
Fe      75.53649107      76.60109213      72.24236540  T      -5.00000000       2.37485311      -0.05080826      -0.36147265      -0.03205501       0.01303350       0.03231221       3.36260128
O       75.40704455      74.74362147      73.14125060  T       0.00000000      -0.33290322       2.28315449      -0.21121025      -0.02485171       0.00135687      -0.01559916       0.14409330
O       75.70700246      77.35652451      74.16348972  T       0.00000000       0.45879006      -0.27737820       0.16336987       0.02124512      -0.05657026       0.00432155       0.05443391
O       73.57643339      76.87618985      72.28233837  T       0.00000000       0.40075752      -0.36650895      -0.04121618       0.01832719      -0.00452377       0.00058645       0.05089913
O       76.70857899      72.01123619      73.87350495  T       0.00000000       0.18291336      -0.71448113       1.47025192      -0.00652543       0.00498810      -0.02424581       0.04641619
O       77.57154462      74.48376198      74.96039392  T       0.00000000       0.70186206       0.91596899      -0.03098290      -0.00781602      -0.01929314      -0.00196768       0.05561775
Rh      74.17092242      74.23133756      74.46981295  T       5.00000000      -1.16401911      -0.25330342       0.99057769      -0.08105612       0.01709327       0.02714201       4.33682585
O       72.98737300      72.92537557      73.86608625  T       0.00000000      -1.59966036      -0.66252645      -0.84240342       0.02298011       0.05082623      -0.01252620       0.08535895
Au      72.05261698      71.77072526      75.55105412  T       0.00000000      -0.35295546       7.73820470      -1.91708076      -0.00054760       0.00844425      -0.01313969       0.00977209
Au      68.97359772      74.22996631      72.30977470  T       0.00000000      -3.48731121      -1.17153834       0.93432983      -0.02599165      -0.00269533      -0.00118166       0.00339964
Au      69.48681406      71.69888065      73.62807024  T       0.00000000      -2.00217613       1.36202004      -0.03496071       0.00787016       0.01529640       0.01675146       0.00413744
Au      71.60399958      73.64871956      72.36437476  T       0.00000000       2.97795347       4.08314402       4.38706701       0.03299313      -0.00835358       0.02550092       0.00913268
Au      68.53862743      74.34059962      77.34779020  T       0.00000000      -1.08654316      -2.12199974      -0.44967671       0.00548522      -0.02417648      -0.00837756       0.00355574
Au      69.23791198      71.82795444      76.53237311  T       0.00000000       1.91197107       2.75571917       0.42215456       0.00796638       0.01979490       0.00828566       0.00384657
Au      70.24122216      73.98077783      74.96699017  T       0.00000000      -1.07112167       2.49648770       0.53043322      -0.01379675      -0.01593927       0.01465269       0.01101366
Au      71.39671553      73.77383249      77.62202393  T       0.00000000       0.76399947      -0.44178713       3.99794550       0.00146025       0.01247647      -0.01705243       0.00972906
Au      70.22691869      76.38709342      70.81702059  T       0.00000000       3.32147750      -0.32092065      -4.86318480      -0.00217794       0.01622050       0.00734891       0.00113586
Au      67.93420581      76.89476582      72.41217778  T       0.00000000       3.87264700       0.62939072       3.36304525       0.01718969       0.00134470       0.00508825       0.01230773
Au      70.49462688      76.40832817      73.56673537  T       0.00000000       2.04226976       1.11561099       0.59149150      -0.00569167       0.00447116      -0.00987464       0.01391971
Au      70.69390864      78.54185919      69.18917251  T       0.00000000      -1.23591520      -3.25382288      -5.19218229      -0.00503618      -0.00798357       0.00824342       0.01228674
Au      67.96095018      75.56988534      74.83507265  T       0.00000000       6.67336704      -4.04389352      -0.69142738       0.00133299      -0.00001760      -0.00018457       0.00367388
Au      67.81297531      76.99249385      77.30979204  T       0.00000000      -1.08014228      -1.62508139      -2.51125049       0.02366051       0.02636804       0.00600590       0.01283090
Au      70.39707028      76.44068402      76.37404436  T       0.00000000      -0.99228382      -0.39215405       1.78054263      -0.00200280       0.01231797       0.00752017       0.01382512
Au      68.65087254      78.32642023      74.83132032  T       0.00000000      -1.75691456      -4.62527078      -0.82448247       0.01813352       0.00415985       0.01565330       0.00010605
Au      69.68594390      72.57297328      79.31035029  T       0.00000000       3.52802241       4.65062833      -0.86383501       0.02124766       0.00903315      -0.00636216       0.00870539
Au      69.99145822      75.90616882      79.11876894  T       0.00000000      -0.48775101      -2.52015837      -1.56328853       0.00586355      -0.00441433       0.00149079       0.00423649
Au      69.82084431      78.91749954      72.26406308  T       0.00000000      -0.71263570      -2.97793457      -0.14404139       0.00269151       0.01592043       0.01127985       0.00294152
Au      69.64520744      79.01425162      77.40375900  T       0.00000000       0.58219295      -1.83868176       7.46371521      -0.00387697      -0.00675453      -0.01056684       0.00454023
Au      69.91150773      80.91425129      75.37201355  T       0.00000000      -5.12561308       6.12935639       0.43513028      -0.00159944      -0.02422579      -0.01807414       0.01081423
Au      71.84738145      70.16139737      73.17419024  T       0.00000000       0.33919740      -2.67120428      -1.50258913       0.00994376       0.00526094       0.00678192       0.00433433
Au      73.64967357      68.05726362      72.93732914  T       0.00000000       5.24260567       3.00292387      -0.34145881       0.00183760      -0.03488295       0.01418613       0.00683659
Au      73.70825561      71.42476904      71.40292172  T       0.00000000      -3.85034446       2.54157411       1.94000582       0.00308480      -0.01034174       0.00133885       0.00817987
Au      70.18302949      69.55389958      75.36850040  T       0.00000000      -2.59186214      -0.55349006      -3.19122858      -0.01770220      -0.02004813      -0.00582251       0.01221043
Au      73.87322028      69.17851837      78.30532247  T       0.00000000      -3.84638964      -2.69850652      -1.00350300       0.00247321       0.00149386      -0.01161705       0.00216115
Au      72.84201679      68.94795555      75.61367860  T       0.00000000      -7.90274282       0.25400480       1.95742653      -0.00765386       0.00532851       0.01475682       0.00129744
Au      74.23979836      70.05914406      80.90785922  T       0.00000000      -1.69742269      -3.50608871       0.62945825      -0.00318642      -0.01073338       0.00582964       0.00676659
Au      70.71317478      73.89635002      69.74909271  T       0.00000000       3.19372968      -1.88573787      -4.50130104      -0.00680470      -0.00077647       0.00536816       0.00374003
Au      72.24975378      71.56402146      68.92159434  T       0.00000000       2.13356670      -0.15802450       0.95877702       0.00657126       0.00765322      -0.02040519       0.00623231
Au      72.54605027      73.99106058      67.54283832  T       0.00000000       3.35844074       2.12252232       4.74087299      -0.01610046       0.03028774       0.00414062       0.01007569
Au      70.44768947      71.39488885      71.04488752  T       0.00000000      -5.81932999       0.94623618      -3.48378697      -0.00951894       0.01733176      -0.01384660       0.00578636
Au      71.38181913      70.52363942      77.86726561  T       0.00000000       1.48007074       0.46184431      -3.06875558       0.00517409      -0.00055485       0.00261742       0.00177829
Au      71.58157058      71.12583734      80.70960022  T       0.00000000      -0.58058604      -0.39625299      -0.37146247      -0.01023988       0.01470369      -0.00883122       0.01112005
Au      73.41103619      72.13040009      78.99970471  T       0.00000000       5.40801022       0.51626923       1.23073202      -0.00488272      -0.00468840       0.01075750       0.00934751
Au      73.76077177      72.53761365      81.94742802  T       0.00000000       2.98615544      -4.54412956       1.66146038       0.00388700      -0.00970319      -0.00337190       0.00354412
Au      72.60497627      76.40031073      69.18493642  T       0.00000000      -0.73901226       0.05649621       0.68730765       0.02083424       0.00963229       0.02495326       0.00630598
Au      73.49543716      73.89019729      70.13387699  T       0.00000000       2.66522264      -3.04086403       0.67558150       0.00167537       0.02303071       0.00577341       0.00899591
Au      72.45635154      77.89457849      66.93632863  T       0.00000000      -2.90764971      -0.77783129      -4.08285385      -0.02349196      -0.02064688       0.00849394       0.01617502
Au      71.83885882      76.88809012      80.95841856  T       0.00000000      -2.44513526       3.36318501      -2.37309609       0.01779036       0.00316240      -0.00659215       0.01009274
Au      71.77794460      74.04396756      80.54443096  T       0.00000000       1.06065000      -1.07438597      -2.23555419      -0.00648102      -0.01062860      -0.00142838       0.00207144
Au      73.79814679      75.31040558      82.17106426  T       0.00000000       0.38904881       2.21116399       8.37147781      -0.01765694       0.01867844      -0.00509027       0.00252342
Au      73.17690505      79.69774290      68.82985196  T       0.00000000       3.63844141       3.40890846       1.84521496      -0.00254825      -0.01099806       0.00634654       0.00771168
Au      72.42141645      78.48696275      71.34517927  T       0.00000000       0.19380834      -0.85614971       4.12601483      -0.00127564       0.01110350       0.01190935       0.00906235
Au      71.47989498      78.80539046      74.75726523  T       0.00000000       4.37845221      -2.25063383      -1.83852407      -0.01221549       0.00475695      -0.00247659       0.00881872
Au      71.39138156      81.09243855      72.94183714  T       0.00000000       1.93885836       0.30503242      -0.28137137       0.00618823      -0.00936936      -0.00982952       0.00425872
Au      71.83567170      80.63009904      77.83838420  T       0.00000000      -1.67519694       2.10493513       1.62447165       0.00856172      -0.00600449       0.00186700       0.00581510
Au      73.76584147      79.10248674      76.35052807  T       0.00000000       6.33461041       1.56028953      -5.08616171       0.00215317      -0.01024865       0.00108037       0.00801975
Au      72.00168711      77.88012204      78.37355892  T       0.00000000      -7.01550983       0.85713756      -2.01645139       0.00926539      -0.00086406       0.00117504       0.00215471
Au      74.17190316      78.13264098      82.06841684  T       0.00000000       5.00657531      -3.14691784      -2.98009276       0.00027077      -0.01764397      -0.04023713       0.01252344
Au      73.95674448      79.61331872      79.60269202  T       0.00000000      -0.55077970       1.35063406      -0.12938557       0.00396751      -0.01424633      -0.00484507       0.00095335
Au      72.64765556      81.69136888      75.45477134  T       0.00000000      -2.05987901       0.14105744      -1.61554195       0.01520578      -0.01016788      -0.01556040       0.00065610
Au      74.58052497      81.49424523      77.56862605  T       0.00000000       5.18277230      -2.69630890      -1.84415720      -0.01094312       0.00656875       0.00795082       0.00276263
Au      72.20843371      69.21875172      70.56474131  T       0.00000000      -0.16821993       1.27392828      -0.29395880       0.00622487      -0.01036822      -0.01446724       0.01101133
Au      75.10352176      70.29007118      73.46258137  T       0.00000000      -0.86260059      -3.38296904      -1.67376966      -0.00924680       0.00588863       0.01040392       0.00552607
Au      76.72147689      68.18101907      72.73455115  T       0.00000000       1.34939142      -1.33655480       5.52816964       0.03901283       0.01846191       0.00651704       0.00887281
Au      74.94525035      68.85416684      70.63401088  T       0.00000000       1.32124114      -0.27927718       2.35860894      -0.00073197      -0.01616289      -0.00817684       0.00735451
Au      75.38457497      67.96057198      75.23304798  T       0.00000000       2.72178007      -1.75780983      -3.10147170       0.01880169       0.01294871      -0.02173926       0.00404871
Au      75.01534917      70.61851478      76.24083573  T       0.00000000      -0.86349548       1.46254261      -1.67130676      -0.00999666      -0.02741732       0.00358620       0.00694995
Au      76.63660008      68.46730579      77.66803116  T       0.00000000      -1.91900819      -3.77831634       1.13137677      -0.00024303       0.01386391      -0.00063086       0.00081536
Au      78.17804781      68.24129071      75.19580579  T       0.00000000      -0.88318018      -2.33713833       1.43772399      -0.00927489       0.02689261      -0.01417165       0.00657466
Au      76.68954134      68.90521579      80.37723950  T       0.00000000       0.99925732       0.19863185       2.33382544       0.00055931      -0.00376306      -0.01662539       0.01380989
Au      78.70149419      70.59103650      79.48740408  T       0.00000000      -6.78200019       0.92407120       2.74404002       0.00295684      -0.00913461      -0.00598782       0.00027809
Au      76.10384579      73.22624903      70.65507156  T       0.00000000       1.03226616      -6.01634013       3.92790023      -0.00342278       0.00251818       0.02448103       0.00716481
Au      75.01387170      71.09969454      68.95862207  T       0.00000000       2.70609353      -2.00570969       1.53568899      -0.01716911       0.00345286      -0.01205225       0.00289036
Au      75.45039555      73.62749062      67.89741842  T       0.00000000      -0.25043458      -3.21770598       2.35931880      -0.02662271      -0.00311333       0.01860894       0.00274065
Au      75.49327491      73.95412493      80.23744172  T       0.00000000       0.34397041       1.17209529       0.32350685      -0.01753569      -0.01184107       0.00059627       0.00720248
Au      75.95268349      71.11859504      78.77847730  T       0.00000000       4.35290816      -2.71851484      -5.32586133      -0.00626865       0.00410736      -0.01112866       0.01757863
Au      76.73787987      71.59476519      81.38415230  T       0.00000000      -2.06697132       0.85674929      -5.71983580       0.00766507       0.00501887      -0.00460845       0.00234520
Au      74.37909938      75.92982893      66.89507260  T       0.00000000      -2.16698274       2.08988050       5.47891383       0.00301169      -0.01764892       0.00894417       0.01061620
Au      75.42201385      75.91622062      69.64931885  T       0.00000000      -4.02552683       1.65521673      -3.35162779       0.00353640      -0.01689309      -0.01226602       0.00555000
Au      78.05144867      74.80818446      69.18475360  T       0.00000000      -3.95120060      -2.32624667       3.71305912      -0.00327365      -0.01999647      -0.00501630       0.00574812
Au      75.31969454      78.21894371      68.03225786  T       0.00000000      -2.00020393       0.96035249      -1.88127918      -0.00277754      -0.00629948       0.01441881       0.00903898
Au      74.40194139      76.81848804      79.71291317  T       0.00000000      -2.45708620      -1.10364536      -6.21462817       0.00578257       0.02342552       0.03412654       0.00998956
Au      76.98048841      76.12683928      78.91796864  T       0.00000000      -0.97899888      -0.43246435      -1.24646109      -0.01228473       0.01134908      -0.00175406       0.01257356
Au      76.16416372      73.78129301      82.93154884  T       0.00000000       4.59615938       1.97362665       0.68416392      -0.00143768      -0.00909646      -0.00082281       0.01272245
Au      76.46505666      76.29674152      81.84249565  T       0.00000000      -1.77879635      -2.83529547       0.55179411      -0.01144014       0.01453558       0.01293056       0.00014946
Au      73.49339352      81.20781721      71.01408024  T       0.00000000      -0.28480816       1.67221685      -0.72120222       0.00430647      -0.00325234      -0.01491243       0.00572582
Au      75.26522899      78.90304534      70.77233163  T       0.00000000      -0.26119720       6.51542042      -0.75583538      -0.00422660       0.00100619      -0.00940051       0.00059323
Au      73.93371364      79.95615715      73.54245632  T       0.00000000      -4.99181227       4.96508645      -0.77921573       0.00206133      -0.00043136       0.00449175       0.00943494
Au      76.07085789      81.24597140      72.23188137  T       0.00000000      -2.24763345      -2.95703725       1.52568343      -0.00474560      -0.00632493       0.00778855       0.00389849
Au      76.11221643      78.87802498      77.78523233  T       0.00000000       0.32330444       2.12330399      -1.64014226      -0.01020926       0.00404433       0.00981058       0.01686898
Au      76.86206251      79.18575142      74.99429169  T       0.00000000       1.64303944      -3.06667048       4.03781251       0.00012900       0.00799766      -0.00477462       0.01031649
Au      76.48361069      81.16172366      79.51146613  T       0.00000000       1.86432307      -4.28982162       2.12589214      -0.00364761      -0.00093447       0.00138462       0.01263054
Au      76.58467728      78.66838071      80.58262765  T       0.00000000      -0.27491059       2.53495464      -1.30708165       0.00430677       0.01805763      -0.00210323       0.00069311
Au      78.71976238      79.48676119      78.77039268  T       0.00000000      -3.90868034       1.67013734      -2.24679090      -0.00040218      -0.00502470       0.00026936       0.00236900
Au      75.56929974      81.81250410      74.97940065  T       0.00000000       3.90384879       1.52708300      -4.02881269      -0.01094983       0.01158551      -0.02536981       0.00032753
Au      73.74068315      82.82360847      73.17671747  T       0.00000000       0.42204997       1.05232891      -3.18558151       0.00474868      -0.00004066       0.00443755       0.01310918
Au      77.48530054      81.26044015      76.87155762  T       0.00000000      -4.96575832      -4.99865838      -1.69294971      -0.00602178       0.01493949       0.00265233       0.00304273
Au      78.26814890      70.51127520      73.48676211  T       0.00000000      -1.71185837       4.32400629       2.38824385       0.04031825      -0.00256688      -0.00011995       0.00581643
Au      79.53975997      68.64863551      77.60235680  T       0.00000000       0.96147666       0.87254571       0.97188947      -0.02025190       0.00023958      -0.00871013       0.01151392
Au      80.41222357      70.16463905      75.20344011  T       0.00000000      -0.31076965       3.17163492       2.31038489       0.00081935      -0.02693301      -0.00209431       0.00506663
Au      77.68145292      72.06458262      68.65310579  T       0.00000000      -5.07901820       1.27742765       1.61009773       0.03748783      -0.00418126       0.01243791       0.01194292
Au      77.05508064      70.55036657      70.98565174  T       0.00000000       2.10029480       0.68645331      -1.88778561      -0.01279359      -0.00791274      -0.01013438       0.00025854
Au      80.78090706      71.57418257      72.75394655  T       0.00000000       1.09396126      -0.32285189      -3.55632534       0.01926957      -0.00347552       0.03652054       0.00973563
Au      78.85627932      72.77490524      71.16494104  T       0.00000000      -3.31515063      -4.70157565       0.35980933      -0.00929957       0.03992355      -0.01610772       0.00241691
Au      80.98755080      71.06668838      77.72757471  T       0.00000000      -0.84946551       1.42545315      -2.20758316      -0.00667910       0.00042606       0.01048629       0.00441743
Au      81.94664904      72.67966069      75.06611687  T       0.00000000       5.02296082       5.39810100      -2.89858732       0.00038634      -0.02003162       0.02117211       0.00442162
Au      77.98513612      70.70900126      76.66648918  T       0.00000000      -2.75869830       1.92033732       4.62310918       0.00307022      -0.00415714      -0.00250193       0.00769088
Au      77.65713898      73.23788668      78.38371606  T       0.00000000      -2.00790267       0.51376512       0.67560548      -0.00601783       0.00187441       0.00074600       0.00994349
Au      80.22555409      72.88706700      79.70286069  T       0.00000000      -3.16208069      -8.30056335      -3.31791310      -0.00914504      -0.00236877      -0.00067863       0.00725353
Au      77.59948869      77.65472074      69.65131589  T       0.00000000      -0.54735902       2.26318041       1.31579163       0.00125600       0.01255118      -0.00640255       0.00307077
Au      78.06156976      75.86011737      71.76472189  T       0.00000000       4.46898838      -1.03555473      -1.78947483      -0.01646258      -0.01380580       0.04216669       0.00405931
Au      79.82734923      74.20596636      73.50427757  T       0.00000000      -0.99816493       0.40070734       5.82676392       0.03548285      -0.02014694      -0.00437675       0.00532486
Au      80.02912496      77.74925074      71.14069231  T       0.00000000       0.44588330      -1.55944875       4.71090592       0.00919500       0.01650069      -0.00542593       0.00648201
Au      79.56428974      73.02408143      76.32209724  T       0.00000000      -0.75521105       0.30247704       2.26976780       0.01477237       0.01311425       0.01689974       0.00594269
Au      79.13607558      77.22416267      74.07641321  T       0.00000000      -5.92398029      -1.74688536       0.92788095      -0.00005715      -0.01065841       0.01115644       0.01059969
Au      79.07805686      77.15042149      80.26589133  T       0.00000000       0.04229264      -2.51205461       1.91674968      -0.02448064       0.00348294       0.01325817       0.00647655
Au      78.25011292      74.37156112      80.92990560  T       0.00000000       2.32488779      -1.10170438       0.84753962       0.01764449      -0.00987155      -0.00060350       0.00091925
Au      79.67587162      75.24375026      78.28649497  T       0.00000000       3.71986346      -1.30144606       0.16370594      -0.00351495      -0.00817027       0.00005297       0.00584716
Au      77.73504291      78.97493149      72.20808028  T       0.00000000      -0.50607595       3.10121068       0.89753499       0.00620119      -0.02426827       0.00263619       0.00642782
Au      78.25554813      81.26784729      74.00121601  T       0.00000000       3.49492798      -7.35456545       2.18763277       0.01038170       0.00236541      -0.01496615       0.00773472
Au      80.36635387      79.55237844      73.25106950  T       0.00000000       2.72266479       3.99886053      -8.16284310      -0.00984707      -0.01829922       0.00890027       0.00832340
Au      79.66746367      79.79145714      76.03561473  T       0.00000000       2.59856226      -0.82424355      -3.91855353      -0.01104084       0.00706331       0.00880022       0.00012322
Au      80.85622990      77.76576810      77.98789322  T       0.00000000      -1.59046814      -1.64542300       0.79219049       0.02489361       0.01459684      -0.00569993       0.00881954
Au      81.67177064      78.08487343      75.30615553  T       0.00000000      -1.18297240       0.78722803       0.91198121      -0.01006659       0.00632332       0.01359763       0.00965881
Au      78.45239061      77.40337222      76.77462075  T       0.00000000       2.31226998       6.09107286      -0.14336142      -0.01107457       0.00767874      -0.00908997       0.01183257
Au      80.53863086      74.97044648      70.78263417  T       0.00000000      -3.88545235      -0.13340559      -0.11423903      -0.01735207      -0.01552355       0.00271763       0.00754322
Au      81.99939681      73.73691959      77.66687755  T       0.00000000       4.13286096      -3.76024904      -1.14924960      -0.00309997      -0.02081555       0.00011774       0.01173344
Au      81.62302958      76.45443945      73.03414389  T       0.00000000       0.72836562       3.17943484       6.64337484      -0.03196759      -0.01634285       0.01005145       0.00366998
Au      82.40526410      73.81998085      72.54939912  T       0.00000000      -1.39104219       6.11257023      -0.71296437      -0.04976428       0.05140184       0.00506257       0.01441394
Au      80.96719057      75.47455991      75.72246334  T       0.00000000       5.73807378       3.08678025      -0.15353612       0.03935039       0.00049999      -0.01828264       0.00522815
