334
Lattice="150.0 0.0 0.0 0.0 150.0 0.0 0.0 0.0 150.0" Properties=species:S:1:pos:R:3:move_mask:L:1:initial_magmoms:R:1:forces:R:3:magmoms:R:1 XYZ=T energy=-1230.7015380859375 stress="3.2672509405529127e-05 5.200915893510683e-07 5.201234216656303e-07 5.200359964874224e-07 3.267251668148674e-05 5.201128487897222e-07 5.200876671551669e-07 5.20131322900852e-07 3.2672487577656284e-05" free_energy=-1230.7015380859375 pbc="F F F"
Fe      76.62158791      76.62158792      76.62158786  T       5.00000000       0.15691414       0.15691763       0.15691963       4.17851305
Fe      79.67432151      75.37173904      75.37173982  T      -5.00000000      -0.48590988      -0.57120883      -0.57109153       3.95613003
Fe      75.37173933      79.67432164      75.37173979  T      -5.00000000      -0.57109034      -0.48589396      -0.57110351       3.95612526
Fe      75.37173935      75.37173951      79.67432183  T      -5.00000000      -0.57110310      -0.57109380      -0.48590225       3.95612574
O       77.61024404      77.61024402      77.61024405  T       0.00000000      -0.01790738      -0.01790804      -0.01790845       0.18214342
Fe      73.30974529      77.70368095      75.56264749  T      -5.00000000      -0.58009201       0.47654545       0.50009757       4.22183847
Fe      73.30974468      75.56264760      77.70368095  T      -5.00000000      -0.58003163       0.50010204       0.47657451       4.22184277
Fe      71.31519122      75.58866820      75.58866944  T      -5.00000000       0.28684652       0.22106016       0.22085738       4.18535042
O       71.39995187      75.53602541      77.46519728  T       0.00000000       0.02375591      -0.38046229      -0.54744840       0.19574159
O       71.39995567      77.46520211      75.53602467  T       0.00000000       0.02378118      -0.54757750      -0.38042295       0.19572991
O       73.38053041      77.48754980      77.48754891  T       0.00000000       0.20510560      -0.66645432      -0.66646636       0.12560418
O       73.35986941      75.54694474      75.54694587  T       0.00000000       0.05049325      -0.09576336      -0.09576619       0.29022226
Fe      77.70368091      73.30974439      75.56264695  T      -5.00000000       0.47657299      -0.58003062       0.50010842       4.22183990
Fe      75.56264710      73.30974548      77.70368058  T      -5.00000000       0.50009108      -0.58009166       0.47654548       4.22183847
Fe      75.58866940      71.31519184      75.58866853  T      -5.00000000       0.22085786       0.28683913       0.22106940       4.18534994
O       77.46520289      71.39995898      75.53602391  T       0.00000000      -0.54743034       0.02375102      -0.38043594       0.19574073
O       75.53602451      71.39995409      77.46519997  T       0.00000000      -0.38043606       0.02379692      -0.54758966       0.19572961
O       75.54694579      73.35986928      75.54694522  T       0.00000000      -0.09574091       0.05053937      -0.09574106       0.29022217
O       77.48754974      73.38052955      77.48755046  T       0.00000000      -0.66644239       0.20510304      -0.66647887       0.12560451
Fe      72.39559779      72.39559812      76.55472594  T       5.00000000       0.36447257       0.36443511      -0.56795394       4.10572577
O       75.49360006      73.56938544      79.63150706  T       0.00000000       0.72299433      -0.14789760       0.32458809       0.28735691
O       73.56938752      75.49359965      79.63150883  T       0.00000000      -0.14789346       0.72299039       0.32458752       0.28735781
O       75.44627075      75.44627114      77.68450339  T       0.00000000       0.07479261       0.07477996       0.08620758       0.18413380
O       73.44728036      73.44727693      77.60236293  T       0.00000000       0.23387298       0.23386864      -0.15543544       0.23361465
Fe      77.70368113      75.56264729      73.30974480  T      -5.00000000       0.47658449       0.50009817      -0.58007222       4.22184229
Fe      75.56264753      77.70368135      73.30974479  T      -5.00000000       0.50010192       0.47658759      -0.58007216       4.22184229
Fe      75.58866815      75.58866866      71.31519078  T      -5.00000000       0.22107381       0.22107089       0.28686970       4.18535662
O       75.53602451      77.46519698      71.39995210  T       0.00000000      -0.38042119      -0.54750490       0.02378500       0.19573450
O       77.46519843      75.53602487      71.39995259  T       0.00000000      -0.54750669      -0.38041353       0.02378225       0.19573435
O       75.54694446      75.54694376      73.35986771  T       0.00000000      -0.09572750      -0.09571245       0.05058360       0.29022363
O       77.48754855      77.48754855      73.38053082  T       0.00000000      -0.66648591      -0.66648489       0.20510328       0.12560320
Fe      72.39559906      76.55472555      72.39559757  T       5.00000000       0.36440027      -0.56791919       0.36449665       4.10572624
O       73.56938364      79.63150574      75.49359969  T       0.00000000      -0.14790457       0.32458869       0.72299057       0.28735620
O       75.49359914      79.63150975      73.56938753  T       0.00000000       0.72296453       0.32456973      -0.14789090       0.28735644
O       75.44627170      77.68450286      75.44627125  T       0.00000000       0.07478894       0.08621643       0.07476856       0.18413359
O       73.44727767      77.60236340      73.44727857  T       0.00000000       0.23391475      -0.15540069       0.23386155       0.23361495
Fe      76.55472487      72.39559906      72.39559751  T       5.00000000      -0.56787050       0.36443871       0.36444476       4.10572672
O       79.63150893      75.49359955      73.56938621  T       0.00000000       0.32457632       0.72296232      -0.14789128       0.28735870
O       79.63150375      73.56938160      75.49360022  T       0.00000000       0.32456416      -0.14777637       0.72299170       0.28735846
O       77.60236296      73.44727740      73.44727948  T       0.00000000      -0.15540308       0.23390047       0.23390113       0.23361534
O       77.68450290      75.44627207      75.44627100  T       0.00000000       0.08623697       0.07478140       0.07477233       0.18413466
Fe      74.45661715      74.45661715      74.45661715  F       5.00000000       0.22010858       0.22011247       0.22011110       4.41768312
Fe      73.44888673      73.44888695      71.29408202  T      -5.00000000       0.76776415       0.76776689      -0.02392518       3.63974619
Fe      73.44888599      71.29408170      73.44888639  T      -5.00000000       0.76780891      -0.02393404       0.76780719       3.63974142
Fe      71.29408169      73.44888553      73.44888644  T      -5.00000000      -0.02393708       0.76780230       0.76777613       3.63975120
O       73.34022822      73.34022763      73.34022460  T       0.00000000      -0.50588763      -0.50585252      -0.50582421       0.16700059
O       71.26459423      75.44070032      73.44774274  T       0.00000000      -0.06797554      -0.18548489       0.01309098       0.25230879
O       75.44069739      73.44774445      71.26459956  T       0.00000000      -0.18551421       0.01298908      -0.06811042       0.25230688
O       73.44774292      71.26459636      75.44069795  T       0.00000000       0.01304635      -0.06801912      -0.18547669       0.25230759
O       75.44070081      71.26459534      73.44774383  T       0.00000000      -0.18553336      -0.06806302       0.01308567       0.25230700
O       71.26459677      73.44774448      75.44069864  T       0.00000000      -0.06800169       0.01306296      -0.18545762       0.25230682
O       73.44774475      75.44069733      71.26459831  T       0.00000000       0.01298282      -0.18550566      -0.06810202       0.25230688
Au      64.82148231      70.93271330      72.96009820  T       0.00000000       0.32289976       0.18765928       0.01336859       0.01154800
Au      64.82148210      72.96009823      70.93271313  T       0.00000000       0.32290292       0.01336554       0.18766025       0.01154804
Au      64.82144010      70.93267701      77.03986998  T       0.00000000       0.32311985       0.18922584      -0.01344936       0.01153713
Au      64.80221645      72.95755285      74.99995350  T       0.00000000       0.01029314      -0.01041844       0.00028483       0.00275347
Au      64.82142745      72.96012253      79.06732672  T       0.00000000       0.32231623       0.01249373      -0.18975605       0.01153527
Au      64.80221624      74.99995368      72.95755289  T       0.00000000       0.01029229       0.00027527      -0.01042132       0.00275336
Au      64.82144007      77.03986997      70.93267709  T       0.00000000       0.32311535      -0.01344992       0.18921638       0.01153708
Au      64.80211272      74.99999788      77.04240893  T       0.00000000       0.00864114      -0.00182147       0.00872369       0.00274900
Au      64.80211271      77.04240893      74.99999796  T       0.00000000       0.00864484       0.00872247      -0.00180443       0.00274897
Au      64.82160756      77.03982470      79.06729574  T       0.00000000       0.32366979      -0.01370208      -0.18770033       0.01152855
Au      64.82142750      79.06732676      72.96012245  T       0.00000000       0.32230890      -0.18974383       0.01248616       0.01153515
Au      64.82160744      79.06729569      77.03982463  T       0.00000000       0.32368413      -0.18770418      -0.01370804       0.01152843
Au      66.84915170      68.88948845      72.95903883  T       0.00000000       0.15449049       0.13573450      -0.01903675       0.00716269
Au      68.88948840      66.84915174      72.95903888  T       0.00000000       0.13574050       0.15449256      -0.01903486       0.00716269
Au      68.88410505      68.88410499      70.92439095  T       0.00000000       0.07779854       0.07780636       0.04294654       0.00237271
Au      66.84944913      68.88973693      77.04093823  T       0.00000000       0.15105399       0.13472825       0.01820686       0.00711460
Au      68.88973694      66.84944907      77.04093818  T       0.00000000       0.13472915       0.15105209       0.01820109       0.00711459
Au      68.87823466      68.87823466      75.00016806  T       0.00000000      -0.01631317      -0.01631682      -0.00550199       0.00606734
Au      68.88419882      68.88419885      79.07522662  T       0.00000000       0.07725650       0.07725871      -0.03874766       0.00225815
Au      66.84915181      72.95903878      68.88948831  T       0.00000000       0.15451036      -0.01905365       0.13574682       0.00716254
Au      68.88410526      70.92439086      68.88410484  T       0.00000000       0.07777048       0.04296673       0.07781490       0.00237265
Au      68.88948857      72.95903880      66.84915194  T       0.00000000       0.13572378      -0.01903947       0.15449370       0.00716269
Au      66.83739013      70.92044856      70.92044866  T       0.00000000      -0.02015311      -0.02975912      -0.02979617       0.00049394
Au      66.83939740      72.96022631      72.96022663  T       0.00000000       0.06645904       0.03498908       0.03498329       0.00732148
Au      68.88188342      70.91852019      72.95548374  T       0.00000000       0.03911809      -0.01247549      -0.06617008       0.00356111
Au      68.88188322      72.95548360      70.91852017  T       0.00000000       0.03910314      -0.06617622      -0.01248402       0.00356120
Au      66.83381896      70.91574273      74.99997834  T       0.00000000      -0.06337387      -0.07466099      -0.00333130       0.00662217
Au      66.84043606      72.96015781      77.03950580  T       0.00000000       0.08478548       0.03431769      -0.03796643       0.00754994
Au      68.87856046      70.91465005      77.04553147  T       0.00000000      -0.00421324      -0.05723645       0.08284283       0.00204213
Au      66.83727597      70.92026024      79.07958119  T       0.00000000      -0.02515505      -0.03007898       0.03160268       0.00052370
Au      66.84928898      72.95906518      81.11034851  T       0.00000000       0.15067357      -0.02159373      -0.13718231       0.00709626
Au      68.88412410      70.92467319      81.11586000  T       0.00000000       0.07619417       0.04206415      -0.07780926       0.00231391
Au      68.88032691      72.95581269      79.08397755  T       0.00000000       0.01218999      -0.07062303       0.04628643       0.00045660
Au      68.88955808      72.95916097      83.15064826  T       0.00000000       0.13444375      -0.02033152      -0.14992008       0.00709243
Au      66.84944892      77.04093830      68.88973709  T       0.00000000       0.15104233       0.01820698       0.13473186       0.00711466
Au      68.87823485      75.00016784      68.87823467  T       0.00000000      -0.01632015      -0.00550447      -0.01630289       0.00606728
Au      68.88973717      77.04093847      66.84944888  T       0.00000000       0.13473235       0.01820538       0.15104398       0.00711459
Au      66.83381910      74.99997859      70.91574258  T       0.00000000      -0.06336841      -0.00332691      -0.07466260       0.00662228
Au      66.84043590      77.03950572      72.96015785  T       0.00000000       0.08480677      -0.03797577       0.03431049       0.00754993
Au      68.87856050      77.04553125      70.91465009  T       0.00000000      -0.00421448       0.08285002      -0.05723211       0.00204211
Au      66.83593080      74.99974930      74.99974956  T       0.00000000      -0.04799241      -0.00245277      -0.00244814       0.00137231
Au      66.84072879      77.03939654      77.03939656  T       0.00000000       0.09531733      -0.03827744      -0.03829631       0.00817858
Au      66.83373252      74.99997550      79.08429186  T       0.00000000      -0.06405944       0.00105760       0.07308189       0.00668465
Au      66.84938793      77.04090291      81.11047183  T       0.00000000       0.15744939       0.02183428      -0.13998038       0.00710711
Au      68.87898115      75.00014941      81.12131066  T       0.00000000      -0.00819516       0.00834962       0.01150334       0.00592592
Au      68.88516814      77.04259306      79.08132950  T       0.00000000       0.06620897       0.06525189       0.02257400       0.00124246
Au      68.88968568      77.04089943      83.15034235  T       0.00000000       0.13878068       0.02165411      -0.16004346       0.00708891
Au      68.88419834      79.07522621      68.88419868  T       0.00000000       0.07723600      -0.03875311       0.07728063       0.00225815
Au      66.83727584      79.07958112      70.92026018  T       0.00000000      -0.02515136       0.03159617      -0.03008740       0.00052366
Au      66.84928891      81.11034853      72.95906532  T       0.00000000       0.15068048      -0.13717577      -0.02159170       0.00709637
Au      68.88032698      79.08397756      72.95581270  T       0.00000000       0.01219948       0.04630466      -0.07063406       0.00045663
Au      68.88412430      81.11586054      70.92467333  T       0.00000000       0.07620866      -0.07781135       0.04206396       0.00231390
Au      66.83373259      79.08429193      74.99997534  T       0.00000000      -0.06405893       0.07308906       0.00109690       0.00668474
Au      66.84938796      81.11047189      77.04090298  T       0.00000000       0.15745576      -0.13999629       0.02182769       0.00710709
Au      68.88516818      79.08132954      77.04259312  T       0.00000000       0.06618400       0.02257058       0.06525152       0.00124256
Au      68.87898105      81.12131067      75.00014908  T       0.00000000      -0.00821577       0.01149452       0.00835908       0.00592592
Au      66.83662951      79.08000402      79.08000409  T       0.00000000      -0.02570666       0.03350265       0.03349918       0.00051598
Au      68.88452864      79.07507508      81.11560220  T       0.00000000       0.08758930      -0.05765969      -0.08786894       0.00227502
Au      68.88452861      81.11560217      79.07507500  T       0.00000000       0.08759293      -0.08786291      -0.05767007       0.00227499
Au      68.88955800      83.15064814      72.95916083  T       0.00000000       0.13443530      -0.14992037      -0.02033995       0.00709252
Au      68.88968544      83.15034245      77.04089938  T       0.00000000       0.13878591      -0.16005737       0.02165667       0.00708891
Au      70.93271323      64.82148215      72.96009824  T       0.00000000       0.18766823       0.32291031       0.01335962       0.01154804
Au      72.96009823      64.82148218      70.93271317  T       0.00000000       0.01336096       0.32291073       0.18766961       0.01154801
Au      70.93267714      64.82144021      77.03987004  T       0.00000000       0.18922369       0.32311660      -0.01345061       0.01153718
Au      72.95755274      64.80221634      74.99995368  T       0.00000000      -0.01041895       0.01029400       0.00028823       0.00275342
Au      72.96012244      64.82142748      79.06732661  T       0.00000000       0.01248907       0.32231450      -0.18975350       0.01153523
Au      70.92439091      68.88410521      68.88410484  T       0.00000000       0.04296313       0.07780150       0.07779288       0.00237270
Au      72.95903864      66.84915173      68.88948824  T       0.00000000      -0.01903631       0.15448946       0.13574028       0.00716273
Au      72.95903894      68.88948863      66.84915191  T       0.00000000      -0.01904098       0.13572682       0.15449065       0.00716256
Au      70.92044860      66.83739017      70.92044843  T       0.00000000      -0.02976952      -0.02017472      -0.02977207       0.00049394
Au      70.91852019      68.88188339      72.95548375  T       0.00000000      -0.01247607       0.03911553      -0.06616992       0.00356123
Au      72.96022649      66.83939752      72.96022657  T       0.00000000       0.03497450       0.06645197       0.03497378       0.00732133
Au      72.95548352      68.88188339      70.91852027  T       0.00000000      -0.06617274       0.03911462      -0.01247843       0.00356133
Au      70.91574273      66.83381901      74.99997835  T       0.00000000      -0.07466371      -0.06337101      -0.00332797       0.00662231
Au      70.91465007      68.87856051      77.04553145  T       0.00000000      -0.05723346      -0.00421308       0.08284465       0.00204214
Au      72.96015766      66.84043582      77.03950587  T       0.00000000       0.03432121       0.08479001      -0.03797218       0.00754990
Au      70.92026022      66.83727592      79.07958111  T       0.00000000      -0.03007777      -0.02515700       0.03160501       0.00052369
Au      70.92467303      68.88412403      81.11586008  T       0.00000000       0.04207058       0.07619881      -0.07780568       0.00231396
Au      72.95906518      66.84928891      81.11034848  T       0.00000000      -0.02159035       0.15067570      -0.13718854       0.00709632
Au      72.95581269      68.88032687      79.08397745  T       0.00000000      -0.07062420       0.01219552       0.04630328       0.00045662
Au      72.95916099      68.88955818      83.15064819  T       0.00000000      -0.02033809       0.13443971      -0.14992490       0.00709245
Au      70.93271333      72.96009831      64.82148218  T       0.00000000       0.18766628       0.01335405       0.32291099       0.01154807
Au      72.96009830      70.93271333      64.82148220  T       0.00000000       0.01335289       0.18766581       0.32291245       0.01154809
Au      70.92044846      70.92044855      66.83739049  T       0.00000000      -0.02975070      -0.02976597      -0.02018308       0.00049391
Au      70.91851997      72.95548375      68.88188300  T       0.00000000      -0.01247010      -0.06616788       0.03912107       0.00356141
Au      72.95548375      70.91851989      68.88188303  T       0.00000000      -0.06617972      -0.01247794       0.03911629       0.00356127
Au      72.96022658      72.96022650      66.83939741  T       0.00000000       0.03497153       0.03497455       0.06644465       0.00732124
Au      70.91684155      72.95627956      81.11950832  T       0.00000000      -0.03596214      -0.06494572      -0.02576869       0.00153172
Au      72.95627976      70.91684162      81.11950835  T       0.00000000      -0.06495909      -0.03597184      -0.02577632       0.00153176
Au      70.92013850      70.92013858      83.16312640  T       0.00000000      -0.03300845      -0.03302213       0.03233768       0.00053889
Au      70.93273094      72.96021001      85.17853962  T       0.00000000       0.19200867       0.01386647      -0.32506523       0.01153749
Au      72.96021003      70.93273087      85.17853967  T       0.00000000       0.01386125       0.19200914      -0.32506138       0.01153751
Au      72.96177553      72.96177558      83.15711371  T       0.00000000       0.05187853       0.05188789      -0.10692961       0.00826903
Au      70.93267710      77.03987009      64.82144052  T       0.00000000       0.18922125      -0.01343873       0.32312131       0.01153709
Au      72.95755260      74.99995345      64.80221643  T       0.00000000      -0.01040457       0.00026661       0.01029211       0.00275347
Au      70.91574287      74.99997843      66.83381892  T       0.00000000      -0.07465127      -0.00332493      -0.06337052       0.00662214
Au      70.91465028      77.04553143      68.87856035  T       0.00000000      -0.05721954       0.08285048      -0.00422240       0.00204213
Au      72.96015745      77.03950583      66.84043583  T       0.00000000       0.03428968      -0.03795902       0.08481171       0.00754996
Au      70.91969915      77.04341168      81.11779545  T       0.00000000      -0.03418057       0.08527724      -0.02864716       0.00105283
Au      70.91657094      75.00054373      83.16502282  T       0.00000000      -0.06491204       0.00916382       0.05440909       0.00671312
Au      70.93303664      77.03984931      85.17811120  T       0.00000000       0.19346572      -0.01340670      -0.32787770       0.01151380
Au      72.95821412      75.00034719      85.19673440  T       0.00000000       0.00235398       0.00511502      -0.03258366       0.00269380
Au      72.96099760      77.03907448      83.15784955  T       0.00000000       0.04515012      -0.04168326      -0.09898899       0.00771168
Au      72.96012255      79.06732656      64.82142753  T       0.00000000       0.01248032      -0.18975449       0.32231855       0.01153515
Au      70.92026009      79.07958054      66.83727575  T       0.00000000      -0.03005667       0.03158548      -0.02518618       0.00052363
Au      70.92467369      81.11586075      68.88412440  T       0.00000000       0.04206583      -0.07780042       0.07620737       0.00231397
Au      72.95581257      79.08397750      68.88032701  T       0.00000000      -0.07062743       0.04627913       0.01218400       0.00045657
Au      72.95906538      81.11034874      66.84928907  T       0.00000000      -0.02158936      -0.13719037       0.15067390       0.00709623
Au      70.91684171      81.11950805      72.95627975  T       0.00000000      -0.03596319      -0.02578077      -0.06495959       0.00153172
Au      72.95627961      81.11950834      70.91684142  T       0.00000000      -0.06494556      -0.02576902      -0.03595173       0.00153168
Au      70.91969923      81.11779527      77.04341175  T       0.00000000      -0.03416421      -0.02860909       0.08529400       0.00105281
Au      70.92546410      81.11514743      81.11514701  T       0.00000000       0.05287670      -0.09146836      -0.09147052       0.00224000
Au      72.95514769      79.08313734      81.11942638  T       0.00000000      -0.07294982       0.03828240      -0.03406224       0.00091593
Au      72.95514769      81.11942650      79.08313761  T       0.00000000      -0.07296409      -0.03405514       0.03826484       0.00091586
Au      70.92083222      79.07928514      83.16250885  T       0.00000000      -0.02552864       0.02156544       0.01846540       0.00058541
Au      72.96025631      79.06695172      85.17801797  T       0.00000000       0.01530395      -0.19373047      -0.32786074       0.01151581
Au      72.95933254      81.11007160      83.15011671  T       0.00000000      -0.01363114      -0.13846806      -0.15962504       0.00708251
Au      72.95916083      83.15064797      68.88955821  T       0.00000000      -0.02032545      -0.14992023       0.13442710       0.00709242
Au      70.92013838      83.16312608      70.92013833  T       0.00000000      -0.03303184       0.03233552      -0.03301872       0.00053900
Au      70.93273086      85.17853982      72.96021001  T       0.00000000       0.19200462      -0.32505569       0.01386668       0.01153751
Au      72.96177540      83.15711344      72.96177552  T       0.00000000       0.05189072      -0.10693352       0.05188849       0.00826889
Au      72.96021006      85.17853993      70.93273075  T       0.00000000       0.01386315      -0.32505265       0.19199988       0.01153742
Au      70.91657097      83.16502270      75.00054375  T       0.00000000      -0.06489452       0.05441452       0.00920213       0.00671318
Au      70.93303649      85.17811147      77.03984921  T       0.00000000       0.19346802      -0.32789826      -0.01341097       0.01151384
Au      72.96099776      83.15784959      77.03907466  T       0.00000000       0.04511341      -0.09899144      -0.04167475       0.00771177
Au      72.95821443      85.19673447      75.00034710  T       0.00000000       0.00235808      -0.03258628       0.00513336       0.00269380
Au      70.92083247      83.16250867      79.07928545  T       0.00000000      -0.02551793       0.01844626       0.02154342       0.00058533
Au      72.95933254      83.15011646      81.11007127  T       0.00000000      -0.01363649      -0.15962452      -0.13845934       0.00708251
Au      72.96025640      85.17801750      79.06695163  T       0.00000000       0.01530547      -0.32786390      -0.19373274       0.01151583
Au      74.99995362      64.80221637      72.95755284  T       0.00000000       0.00028533       0.01028356      -0.01041964       0.00275339
Au      77.03986991      64.82144004      70.93267702  T       0.00000000      -0.01344834       0.32311761       0.18921904       0.01153710
Au      74.99999787      64.80211269      77.04240888  T       0.00000000      -0.00182170       0.00864828       0.00872259       0.00274915
Au      77.04240894      64.80211260      74.99999784  T       0.00000000       0.00872184       0.00864497      -0.00181143       0.00274909
Au      77.03982470      64.82160761      79.06729575  T       0.00000000      -0.01370232       0.32367101      -0.18770176       0.01152854
Au      75.00016778      68.87823486      68.87823469  T       0.00000000      -0.00550205      -0.01631849      -0.01630241       0.00606731
Au      77.04093846      66.84944892      68.88973704  T       0.00000000       0.01820574       0.15104485       0.13473143       0.00711459
Au      77.04093856      68.88973719      66.84944886  T       0.00000000       0.01821074       0.13473055       0.15104577       0.00711460
Au      74.99997861      66.83381892      70.91574274  T       0.00000000      -0.00332687      -0.06336766      -0.07466747       0.00662223
Au      77.03950586      66.84043599      72.96015778  T       0.00000000      -0.03797472       0.08479986       0.03431268       0.00754993
Au      77.04553126      68.87856056      70.91465021  T       0.00000000       0.08284695      -0.00421489      -0.05722724       0.00204213
Au      74.99974940      66.83593077      74.99974948  T       0.00000000      -0.00245285      -0.04799228      -0.00244114       0.00137234
Au      77.03939656      66.84072895      77.03939666  T       0.00000000      -0.03828623       0.09531895      -0.03828618       0.00817853
Au      74.99997562      66.83373256      79.08429185  T       0.00000000       0.00105580      -0.06406049       0.07307813       0.00668487
Au      75.00014944      68.87898106      81.12131068  T       0.00000000       0.00834732      -0.00819690       0.01150479       0.00592597
Au      77.04090280      66.84938783      81.11047184  T       0.00000000       0.02183854       0.15744914      -0.13998076       0.00710705
Au      77.04259297      68.88516822      79.08132944  T       0.00000000       0.06525184       0.06621196       0.02256932       0.00124253
Au      77.04089942      68.88968574      83.15034237  T       0.00000000       0.02165633       0.13877977      -0.16004227       0.00708894
Au      74.99995335      72.95755268      64.80221655  T       0.00000000       0.00027351      -0.01040574       0.01029320       0.00275344
Au      77.03987006      70.93267710      64.82144038  T       0.00000000      -0.01344810       0.18921915       0.32311603       0.01153708
Au      74.99997841      70.91574276      66.83381895  T       0.00000000      -0.00332215      -0.07464886      -0.06337413       0.00662217
Au      77.04553138      70.91465033      68.87856051  T       0.00000000       0.08284812      -0.05723007      -0.00421801       0.00204214
Au      77.03950580      72.96015751      66.84043591  T       0.00000000      -0.03796701       0.03430488       0.08479702       0.00755006
Au      77.04341163      70.91969923      81.11779548  T       0.00000000       0.08527666      -0.03417917      -0.02864912       0.00105271
Au      75.00054370      70.91657093      83.16502282  T       0.00000000       0.00918627      -0.06490891       0.05441401       0.00671311
Au      75.00034705      72.95821434      85.19673435  T       0.00000000       0.00511213       0.00235721      -0.03258059       0.00269385
Au      77.03984939      70.93303659      85.17811128  T       0.00000000      -0.01341845       0.19345973      -0.32788876       0.01151380