334
Lattice="150.0 0.0 0.0 0.0 150.0 0.0 0.0 0.0 150.0" Properties=species:S:1:pos:R:3:move_mask:L:1:initial_magmoms:R:1:momenta:R:3:forces:R:3:magmoms:R:1 XYZ=T energy=-1224.8572998046875 stress="-4.502996034716489e-06 2.778638872769079e-06 4.463275615762541e-07 2.7786363716586493e-06 -2.0409108856256353e-06 -2.180491719627753e-06 4.463460925308027e-07 -2.180496949222288e-06 2.356698814764968e-06" free_energy=-1224.8572998046875 pbc="F F F"
Fe      76.62532223      76.75084182      76.12397838  T       5.00000000       1.89582746       0.14691928      -0.16287047      -0.51774532       0.09629717      -0.59624916       4.26750851
Fe      79.12833860      77.00402083      74.96380160  T      -5.00000000      -1.19073359       1.29691348      -0.20439352       0.82817477      -0.92928016      -1.05307245       3.79423976
Fe      74.55567560      79.84860339      75.77508206  T      -5.00000000      -0.04803558      -0.05240232       0.41946506      -0.23357421       0.68687767      -0.09758259       3.81938624
Fe      76.90781399      74.86250316      79.50697591  T      -5.00000000      -0.05771579       1.58038462       1.69444382       0.42298180      -0.21537867       0.02118552       3.61700153
O       78.16295523      77.87619211      76.36819618  T       0.00000000       0.83969498      -0.19437743       0.53665489      -0.99235010      -0.00932840      -0.38488895       0.07037097
Fe      73.12731515      77.47929471      76.12492443  T      -5.00000000      -0.62060152       0.07926638       1.32017021      -0.43607217      -0.77239299       0.67692041       4.19766760
Fe      74.66587610      74.97257001      78.08714769  T      -5.00000000       0.05866194      -2.72683684       2.00648143      -1.88779604      -0.97967219       0.89716947       4.21230841
Fe      71.80492352      75.08115239      77.31576425  T      -5.00000000       0.70671564       2.31603971      -0.47497491       0.03242475       0.87714958       0.80328691       4.08958912
O       72.82334294      73.85702942      78.63903252  T       0.00000000      -0.76240473       0.25637960       0.08836968      -0.71845615       0.20700592      -0.73827505       0.15113586
O       71.19453066      76.43483936      76.11649230  T       0.00000000      -0.33784476      -0.29449542      -0.45071831       0.62478012       1.10544527       0.35012555       0.13622358
O       73.29469704      76.31371473      77.76846596  T       0.00000000       0.19992790      -0.22495295       1.21115138      -0.27482224       1.47671723      -0.67525190       0.31256354
O       74.08590864      74.53576423      76.20147326  T       0.00000000      -0.46211816      -0.56325607      -0.64987273      -0.53649694       0.65390640      -0.51556277       0.20892957
Fe      78.58801655      74.01746989      74.48333562  T      -5.00000000       1.19170897       0.41891148      -1.02985747      -0.73197126      -0.42576802      -0.50791311       4.25343180
Fe      76.79888440      72.50879333      77.58863970  T      -5.00000000      -1.03042545       3.50600576      -1.82651858       0.67755330       0.67882651       0.76356649       4.25122833
Fe      77.40801130      71.18881100      75.27664377  T      -5.00000000       2.77141986       1.17531088       1.73592416       0.80503052       0.32142287      -0.19071290       4.14797068
O       78.08444193      72.06331671      73.61067533  T       0.00000000       0.33555282       0.76147683      -0.66044394      -0.01989518       0.50712788      -0.08421552       0.23102075
O       77.04133562      70.72728832      77.20272004  T       0.00000000      -1.24828700       0.38770637      -0.46335647       0.54870349      -0.75607431      -0.42806762       0.20464098
O       75.37355352      73.02525798      73.67731739  T       0.00000000       1.71587426      -0.32065064      -2.15501025      -0.76429951      -0.16907269       1.06145203       0.22833762
O       77.67590703      73.00964646      75.90860042  T       0.00000000       1.40598022      -0.35034825      -0.30376479      -0.12218526       0.26962960       0.80342340       0.32794642
Fe      73.33176071      72.87711799      76.92059369  T       5.00000000       1.59537755      -0.16723650      -0.48716690      -1.12811351      -0.77509040       0.03544030       4.20787811
O       77.43546774      73.01191637      79.38706890  T       0.00000000      -0.70796209       1.35232042      -0.26794052      -0.16869758       0.58828467      -0.51071930       0.13579820
O       75.09783594      75.06920634      80.10278157  T       0.00000000       0.13488928      -0.36442424      -0.59760335       0.19795379      -0.30956823      -0.38242134       0.11137676
O       76.27414682      75.70232798      77.63204654  T       0.00000000       0.99999844      -0.52063726       0.23780853       2.03634191       0.61279738      -0.14804673       0.25243029
O       75.01283357      72.98238408      77.70507735  T       0.00000000       0.53702940       0.59144947      -0.72772623       1.13812029      -0.48166320       0.88718402       0.28263220
Fe      77.15482431      76.30770315      72.73856301  T      -5.00000000       2.86097365       2.88216871      -0.54429463       0.74595821       0.21568450       0.55301905       4.31191683
Fe      74.64365642      77.83461425      73.44422532  T      -5.00000000       0.01164714      -0.44371557       2.00289826      -0.60631979       0.41472071       0.10168251       4.16243267
Fe      74.94334047      75.56232998      71.04652688  T      -5.00000000       0.97382328       1.54054584       0.12864976       0.30305538       0.02522439       0.10879499       4.14637041
O       73.79191009      77.36531372      71.70444053  T       0.00000000       0.73404408       0.23152735      -1.15360663       0.20631421       0.31170738      -0.51628196       0.14669070
O       76.55277093      76.52364578      70.85755985  T       0.00000000      -0.47905714      -0.11232320      -1.36718219      -0.24059707      -0.15992749       0.49832541       0.11351132
O       75.17764618      75.79635189      73.06626922  T       0.00000000      -0.05954540       1.77323290      -1.13523865       0.01550579      -1.08375788       0.44390321       0.27998385
O       76.48689411      78.04282935      73.56304678  T       0.00000000       1.03475834      -0.84729214       0.66860006       0.49457744       0.38957742      -0.91593516       0.19620430
Fe      72.59019591      75.94285015      72.60443122  T       5.00000000      -0.62307460      -0.21605240      -0.01886366      -0.21235977       0.85382128      -0.09267639       4.08759832
O       73.09098395      79.38704721      77.03171393  T       0.00000000       1.76748739       2.47962823      -1.10630907      -0.04781592      -0.84376472      -0.99430454       0.09422031
O       74.24714529      79.74724339      73.89870376  T       0.00000000      -0.94667421       1.09710148      -0.36238332      -0.23956966       0.06446934       0.10276297       0.13676277
O       75.08877890      77.99311129      75.84971276  T       0.00000000      -0.09877660      -0.19703974      -0.99013898      -0.00686845      -1.66948187       0.36148667       0.26125878
O       73.12898184      76.92094625      74.23721509  T       0.00000000      -0.08003803      -1.20789042       0.59435699      -0.41370913       0.24072801       1.25654507       0.31201100
Fe      76.81015752      73.10408651      72.51303292  T       5.00000000       1.71042247       0.42232451      -0.65370554       1.23962903      -0.04414952      -1.39566708       4.15495968
O       78.89209291      77.27883234      73.04373597  T       0.00000000      -0.59992104      -0.58821711       0.85105863       0.39095300      -0.13843107      -0.41579431       0.16016105
O       79.91905897      75.07549566      75.25120414  T       0.00000000      -1.29437380       0.40599312       0.16517546       0.46816719       0.53422117      -0.18396533       0.12864771
O       78.04146940      74.54290653      72.50193664  T       0.00000000       1.74547359       1.39784160      -1.16992923       0.00273097      -0.52830362       0.34114796       0.33895388
O       77.37772206      75.61274175      74.66661116  T       0.00000000       0.53121709       0.11798406      -0.00115635      -0.46888265       0.99713433       1.52792895       0.28841782
Fe      74.45661715      74.45661715      74.45661715  F       5.00000000       0.00000000       0.00000000       0.00000000      -0.19021279       1.47315311      -1.82465792       4.26886511
Fe      73.53042554      73.28042700      71.69478556  T      -5.00000000       2.44919434      -0.34996503       0.29593035       0.45868650      -0.82917416       0.02595150       4.03369761
Fe      74.43816425      71.38975276      74.05628992  T      -5.00000000      -2.29931530       1.06072086       0.55291371      -0.22425431      -1.08993149      -0.41505662       4.12743521
Fe      71.66338050      72.74112380      74.21975206  T      -5.00000000       0.50237336      -0.33755244       0.55714965       0.40278202      -0.19023693       0.85214508       3.61183238
O       72.85213416      71.79540021      72.69060996  T       0.00000000       2.27259017      -0.23616148      -0.58691347       0.46696416      -0.63158250       0.17797565       0.07060489
O       72.71343179      74.20310935      73.45975242  T       0.00000000      -1.05008803      -1.44629002      -0.69061066       0.63808286       0.37805766       0.28255272       0.19470233
O       75.47845871      73.55084264      71.11210327  T       0.00000000       0.34102277       0.40486595      -1.24626383      -0.12802881       0.46012050       0.15626153       0.24268216
O       73.21286292      71.71063827      75.39210489  T       0.00000000       0.20475016       1.09426177      -0.68680791      -0.41837415       0.26694345       0.39535987       0.24200550
O       76.02552923      70.30757835      74.42680393  T       0.00000000       0.89753025       0.14981126       0.97914443      -0.90322053      -0.26784876      -0.18633434       0.13255736
O       71.44558345      73.66580702      76.17593048  T       0.00000000      -0.59642113      -0.78131609       0.89358110       0.10287654      -1.28383482      -0.61731273       0.11085293
O       73.14325472      74.96599280      70.90483097  T       0.00000000       0.08463439       0.70155224       1.15622025      -0.58935499       0.22149226      -0.38960347       0.10724078
Au      65.42428497      68.37788614      72.64389173  T       0.00000000      -0.81288608      -0.45499289      -2.69327447       0.29457054       0.61973745       0.10984099       0.01477869
Au      65.04399864      70.87763351      71.10885721  T       0.00000000       1.96386666       1.98619303      -4.96940041       0.23529038       0.32719597       0.52283812       0.01645915
Au      65.33965783      69.66298588      77.49104356  T       0.00000000       1.41965049      -0.12415551       2.37335443      -0.03965538      -0.41487521      -0.26642919       0.00896032
Au      64.56905355      70.04882093      74.82555731  T       0.00000000       2.12218238      -4.20554299       0.89174610       0.53763145       0.29976031      -0.21327481       0.01224248
Au      66.32022975      71.50360290      79.08330483  T       0.00000000      -1.55607973       0.19023841      -5.16409349       0.24600032       0.58725578       0.21280472       0.00374529
Au      65.65525737      72.79367930      74.13328740  T       0.00000000      -2.06557259      -3.32235868      -3.33269021       0.40045217      -1.15374374      -0.11952960       0.00159869
Au      67.35440102      75.56270253      73.24094913  T       0.00000000      -3.28547659       3.98095315       2.53019028      -0.66936564      -0.29701731       0.74845326       0.00419460
Au      64.95893488      72.90924118      77.30187369  T       0.00000000      -2.46531736       0.28763479       3.23300605       0.51374042       0.25380915      -0.57529837       0.00981891
Au      65.05425354      74.96921996      75.23574962  T       0.00000000       2.57628459      -2.85915713      -2.25923758       0.19834180       1.14363790       0.63575357       0.00933440
Au      65.82155717      76.08087752      77.69712208  T       0.00000000      -2.09811899      -3.37903128       0.87164846       0.10295020      -0.16013286      -0.09669727       0.00381605
Au      65.51943813      77.53742379      73.86906132  T       0.00000000       0.94247689      -4.62551143      -1.11739100      -0.04460382      -0.21324635       0.48784226       0.00662339
Au      65.62638890      78.58409638      76.59355406  T       0.00000000      -0.05639237      -0.21417548       1.58936416      -0.35685220       0.08787376      -0.44169453       0.00944754
Au      68.40620371      68.18438408      73.18331483  T       0.00000000      -2.04741438      -3.09022453       0.33581642      -0.02814406      -0.35523140       0.16770847       0.00396878
Au      68.49513869      66.35529379      75.34601617  T       0.00000000       1.26283584      -1.20521226       3.40891925       0.26640135       0.26151252      -0.20733030       0.00713506
Au      70.01017721      69.41923909      71.38560499  T       0.00000000       3.87175400       2.97460897       4.40952273       0.06219327       0.05166291       0.07276884       0.00589594
Au      67.38254140      67.76691528      78.05920092  T       0.00000000      -6.68402234      -2.59567907       1.58622902      -0.13553561      -0.04185030      -0.63497543       0.00359881
Au      69.10985070      65.65958077      77.84795893  T       0.00000000      -1.77743563       4.34144981       5.76472368      -0.03971176      -0.08696744       0.00131939       0.01368608
Au      69.58935536      69.05337143      75.93267556  T       0.00000000      -1.22518445       7.18135316       3.60009226      -0.70244342      -0.21774757      -0.08484317       0.00962709
Au      69.68605515      67.66773850      79.79017910  T       0.00000000       2.46471073       6.37914863      -3.18585997      -0.86133069      -0.06477416      -0.12766486       0.00213473
Au      67.33375923      71.72227396      68.95865892  T       0.00000000      -0.64916363      -3.75789126      -2.00543469      -1.80781507       0.88187575       0.18480419       0.01006511
Au      69.60750460      70.78112085      68.95485106  T       0.00000000       1.32923816       0.21828532      -2.11924431       1.80414760      -0.59238666      -0.32421428       0.00141440
Au      69.70475364      72.72400330      66.56292986  T       0.00000000       3.53458103      -0.05960678       0.43703717       0.00899677      -0.37889707       0.40067363       0.01117413
Au      67.23789799      69.50973138      70.77350359  T       0.00000000       0.01675182      -3.90665744      -1.35665467       0.43812591      -0.22235584      -0.06407603       0.00513485
Au      67.22115451      70.63940232      73.36211380  T       0.00000000       5.44109990       2.65266024      -1.48227696      -0.49596167       0.06170952      -0.26789218       0.01367730
Au      70.09471536      70.86766864      73.71347211  T       0.00000000      -0.07616968       0.98838089       0.26020033      -0.51833445       0.08562262       0.18488505       0.00024967
Au      68.76333560      72.08141702      71.41897381  T       0.00000000       2.96233889      -1.01466943       2.67966219      -0.00989457      -0.45998704      -0.01399200       0.00943632
Au      66.40732234      68.09221952      75.23868468  T       0.00000000       1.99518957      -1.67950362       1.03364060       0.11802544       0.32688054       0.20927162       0.00335690
Au      67.22471851      70.97491586      76.02585256  T       0.00000000      -3.43302359      -0.79426015      -0.70983593      -0.18372864       0.27857065       0.13728684       0.01247907
Au      68.75376993      70.20815564      78.33829262  T       0.00000000       1.35369966      -3.53701641       2.83325456       0.39971307       0.22624114      -0.04158200       0.01298398
Au      67.29318840      69.24384798      80.35342313  T       0.00000000       3.33174704       1.19938338       2.16343112      -0.89437211      -0.25954181       0.23420992       0.01033333
Au      68.12830097      72.47223724      81.02030591  T       0.00000000       2.14756499       0.15499172      -2.41900734      -0.13563597      -0.98019493       0.37891230       0.00351866
Au      71.40795297      71.04709262      79.28094254  T       0.00000000       3.82085626      -1.37872798       2.51040330      -0.63262224       1.33577120      -0.36081901       0.00880240
Au      69.60520348      73.18994854      78.90437134  T       0.00000000      -2.02811811      -0.52005340      -9.02258077      -0.07123642       0.25059241       0.25748152       0.01070257
Au      69.50000638      70.01929363      81.46370191  T       0.00000000      -2.65749990       0.30836363       4.27035304       0.50800252       0.55536681       0.46579915       0.00418817
Au      67.19915075      76.50839687      70.67168216  T       0.00000000       1.54393816      -1.07091493       1.76626171      -0.34334242       0.03662041      -0.56202042       0.00025673
Au      67.69809065      74.45817418      68.95726650  T       0.00000000       4.68992894      -3.29992587      -2.75604596       0.21407294      -0.28435364       0.00186519       0.00313613
Au      68.20531094      76.94238814      67.93192885  T       0.00000000      -4.01592337      -1.37999565      -3.35272609       0.03018997       0.36422279       0.25613660       0.00778797
Au      66.30240071      73.35386272      71.56504531  T       0.00000000      -3.00600619       2.54888651       2.35549244       0.26946881      -0.03649832      -0.28696224       0.00281830
Au      68.78088527      73.30635996      74.17575851  T       0.00000000      -3.07773822       4.97245498       0.31309415      -0.30174705      -0.11803171      -0.19313383       0.00557990
Au      69.16124168      74.70024028      71.54746233  T       0.00000000       0.59847824      -3.83548340      -1.23793743       0.37998450      -0.03474394      -0.00206757       0.00392748
Au      69.77310005      72.03585950      76.52391494  T       0.00000000      -1.55151473       0.76650804       2.96833473       0.22181724      -0.15556769      -0.45014042       0.00661820
Au      67.60262454      73.93872555      76.69139587  T       0.00000000      -3.17705971       2.74450988       1.98288917      -0.46047679       0.04699690      -0.03826277       0.00875738
Au      66.83698033      74.39198523      79.49177763  T       0.00000000       4.48713340      -0.13013074      -1.92051070      -0.20621876      -0.37931478       0.05057174       0.00099796
Au      67.40803348      76.97363738      80.78216118  T       0.00000000       3.74757183      -3.91655992      10.17542663       0.10289366       0.11523566      -0.26253188       0.00902052
Au      69.00594426      74.90424810      81.39658833  T       0.00000000      -2.50223418       1.29690263       2.41521008       0.77718914       0.25925878       0.17867911       0.00358017
Au      68.92116432      75.85083860      78.53193108  T       0.00000000      -1.23796224       0.13999537      -2.08951482       0.11173375       0.06083599      -0.10652170       0.01148871
Au      69.65380100      77.29527798      82.71649336  T       0.00000000       2.22326262       1.36822290      -7.39646244      -0.93804902       0.03839532      -0.74911529       0.00190699
Au      68.20676047      79.12198006      69.88433950  T       0.00000000      -1.13965857       7.56146443       3.29171087       0.58351070       0.09211529      -0.39916342       0.00348662
Au      66.35977104      78.97209275      71.77022712  T       0.00000000       2.21519801       5.92782179      -7.91365125      -0.85489178       0.18760768       0.21832407       0.00860089
Au      66.17401982      80.27261984      74.42888759  T       0.00000000      -2.81191565       0.77680884       1.72444139      -0.31060508       0.13778552      -0.65797842       0.00784500
Au      68.77367437      77.92996560      72.39658418  T       0.00000000       1.02760196       0.90466150       2.44824849       0.79911196      -0.18540102       0.01281086       0.00440139
Au      67.81918098      81.20351152      71.98962528  T       0.00000000       0.86882295       0.52599584       1.82580200       0.53862846      -0.04316289       0.34690857       0.00597018
Au      67.62686767      76.86028102      75.67076577  T       0.00000000       3.64753596       4.38259203       2.71662295       0.12410131      -0.05141621       0.13119182       0.00769036
Au      67.65371665      80.65530799      76.64669118  T       0.00000000      -1.26887450       4.22531945      -6.20249396       0.06752287       0.40936819       0.70333362       0.00233474
Au      70.06881734      78.05649037      77.02561015  T       0.00000000       0.12147351       3.67946220      -8.72525007       0.11756207      -0.31198305      -0.18005642       0.00618443
Au      68.72826517      79.40898243      74.58774191  T       0.00000000      -2.85783684       1.28847722       0.14503743       0.57461166      -0.12389611      -0.08294942       0.00773086
Au      67.71833333      78.31717802      78.25788786  T       0.00000000       0.50879487      -0.24483913      -3.99201115      -0.06695924       0.10997695       0.52867615       0.00325304
Au      69.09626648      79.19655310      80.68770128  T       0.00000000       0.88496514      -1.37130108      -2.01588867       0.16244547      -0.21104878       0.34468240       0.00541951
Au      69.83067096      80.47605217      78.47420128  T       0.00000000       0.80482090       4.14608387       0.21353887       0.07013250      -0.06965156      -0.46929842       0.00225016
Au      68.43639058      82.43934009      74.46967351  T       0.00000000      -1.63368076      -0.96812618      -1.06206245       0.34592569      -0.18925959      -0.30827364       0.00241418
Au      69.39833091      82.82801741      76.98017177  T       0.00000000      -6.68924641      -1.16455553       0.24288655       0.62364244       0.10029532      -0.21629629       0.00597245
Au      70.57981441      66.06673726      73.25586490  T       0.00000000      -1.62695423      -0.64804273      -8.45657224      -0.43370259      -0.20017159      -0.32142481       0.00380594
Au      72.74532151      64.90284401      70.98386725  T       0.00000000       0.09888061      -1.52975100       1.64227053       0.12457420       0.33200693       0.48662800       0.01504961
Au      73.20833968      64.44387616      76.78444084  T       0.00000000      -2.31726496      -6.31436969      -0.91217282       0.31965110       0.13874753       0.25067341       0.00849089
Au      72.59912144      64.59325554      74.09570286  T       0.00000000       1.41829480       0.77376317      -1.66422205       0.17448883       0.00152108      -0.17205046       0.01032363
Au      74.07783813      64.77776469      79.49086590  T       0.00000000      -4.19974501       0.95181453      -4.31173054       0.42470521      -0.17618981      -0.61226213       0.01266387
Au      71.89096976      69.16861488      69.38472292  T       0.00000000      -2.45938426       3.21095341       3.10252097       0.62627643       0.40527850      -0.87961495       0.00053723
Au      73.98772383      67.18686796      69.84854827  T       0.00000000       1.09196056       1.94773866       4.48941512      -0.58226246       0.17871058      -0.24107194       0.00164470
Au      74.14741792      69.15635094      67.12144998  T       0.00000000      -0.63350895       2.67431633      -0.65161844       0.05167039       0.65635312       0.42466953       0.01045589
Au      70.99288496      66.95755988      70.57957652  T       0.00000000       4.02661514       0.77117674       1.40025077       0.27311051      -0.33253583       0.40848315       0.00854519
Au      71.32178414      68.48430463      73.95069965  T       0.00000000      -0.10716634      -1.36118954      -6.31319363       0.40213603       0.07160526      -0.04052889       0.00242640
Au      73.39561220      67.16142321      72.66132611  T       0.00000000       5.68097809       6.07078987       3.81223702      -0.30830202      -0.02770138      -0.13136688       0.00791796
Au      73.05110214      69.76785333      71.74253579  T       0.00000000       4.22106979       0.55379827       3.70641407      -0.08910662      -0.16547538       0.03062709       0.00373016
Au      71.31824252      66.39544757      76.10676386  T       0.00000000      -1.92941312       4.34835966       2.69451157      -0.08380067       0.21470705      -0.61707354       0.00478406
Au      71.48787379      68.85939782      77.82929952  T       0.00000000       2.06004568      -0.86622443      -0.65269283       0.33175153      -0.77621150      -0.52328610       0.00732629
Au      74.00178005      67.05679222      77.19653881  T       0.00000000      -3.44251494       0.96327371      -2.98919507      -0.07234031       0.05940439       0.29802850       0.00697409
Au      71.62879263      66.07030374      78.76284726  T       0.00000000       1.89896096       0.95011665      -0.98118809       0.71914411      -0.21475704       0.25789070       0.00147229
Au      71.83439985      68.90122446      80.68081182  T       0.00000000       1.06381309       4.08737256       0.71885691       0.69957864      -0.29300839       1.14322889       0.00314140
Au      73.85379836      67.32593777      80.10505374  T       0.00000000       4.30097517       0.83407537       3.73493517       0.23899493      -0.07978793       0.08444547       0.00310373
Au      74.09184764      69.78528872      78.33604225  T       0.00000000      -4.46707287       0.47887229       3.59255256      -0.30678108      -0.29150838       0.29690307       0.00211559
Au      74.49369618      68.95437512      82.30041370  T       0.00000000      -2.48845532      -2.17805420      -1.87481759      -0.95671874      -0.23067400       0.04865757       0.00022753
Au      72.34510825      73.30377070      65.90893345  T       0.00000000       0.58999058      -2.37411026      -2.91493897      -0.89341468      -0.46027067       0.38352463       0.00280772
Au      74.46339864      71.47177257      65.37824756  T       0.00000000      -7.62738425      -5.37441890      -3.30680080      -0.26650259      -0.16389662       0.52790761       0.00946511
Au      71.55554999      70.60774233      66.84174862  T       0.00000000      -3.35846863      -2.02202677       2.52725856       0.28923497      -0.07973543      -0.12098634       0.00913604
Au      70.34958590      73.57079932      69.20897237  T       0.00000000      -1.80738983      -1.36120920      -3.77465554      -0.02349324      -0.69985461       0.35713768       0.00803095
Au      72.62246208      72.13682205      68.69139727  T       0.00000000      -1.77115266       1.33608062      -4.82779636       0.36974090      -0.04822151      -0.02971524       0.00576101
Au      73.01124245      75.02810323      68.33541944  T       0.00000000      -2.97644277       0.48066844       0.86064503      -0.25255862      -0.70042336      -0.08906992       0.00553367
Au      71.80312183      73.49359139      80.79492488  T       0.00000000       6.01789657       1.92173112      -2.46191507      -0.11151799      -0.14101517      -0.34748673       0.00020079
Au      73.63941363      71.17694455      80.72151897  T       0.00000000      -1.08854083       1.48422041      -4.52484904       0.32108051       0.19455864       0.53208816       0.00562085
Au      71.94494668      70.42059779      83.72491640  T       0.00000000      -2.05453118      -2.18936063      -2.93174486       0.53393602      -0.51336437      -0.20421192       0.00933297
Au      72.54887789      72.40057277      85.76240870  T       0.00000000      -2.42373071       0.99082752       2.67820587      -0.52408308      -0.20608670       0.23328726       0.01385997
Au      74.54919484      70.72004242      84.59060969  T       0.00000000      -0.27527854      -0.62366276       2.24012515      -0.45447886       0.32660046       0.71463430       0.00261126
Au      73.16014148      73.13614016      83.29738794  T       0.00000000      -2.22378173      -1.50582603      -1.66207394      -0.93157935      -0.78354275      -1.32916772       0.01035985
Au      70.10112450      77.75664202      66.02087665  T       0.00000000      -3.05469147       0.82508979      -6.14473420       0.46689805       0.08909378      -0.08582550       0.01212318
Au      72.53138729      76.21850790      65.49850172  T       0.00000000      -1.89696678      -1.93041908       3.96700327      -0.36175066       0.13345772       0.37284988       0.00365864
Au      70.35194488      75.29902328      67.18282027  T       0.00000000       1.00396571      -1.38328089      -0.98424760       0.15501218       0.18988313      -0.68363822       0.00441623
Au      70.35836445      76.32081521      69.75222023  T       0.00000000      -1.17711563      -1.61049117       0.89838028      -0.21738929       0.48548943      -0.00116496       0.01067188
Au      72.26985033      77.59904144      68.10167393  T       0.00000000       1.54651504       1.60569451       0.25924179       0.05727148       0.47896230      -0.25836641       0.01061764
Au      70.93097190      77.08951891      80.06457369  T       0.00000000      -0.87298875      -6.21260790      -0.79875086      -0.84147978      -0.43798462      -0.62721139       0.00845969
Au      70.42452993      72.30842751      82.92981087  T       0.00000000       0.86420880       7.08816977       0.21948446      -0.50584924       0.92206120      -0.37769422       0.00394867
Au      70.39624664      75.01718383      84.29712561  T       0.00000000       0.18614128       0.88998816       3.78278051      -0.33948362      -0.23539419      -0.48975360       0.00999880