334
Lattice="150.0 0.0 0.0 0.0 150.0 0.0 0.0 0.0 150.0" Properties=species:S:1:pos:R:3:move_mask:L:1:initial_magmoms:R:1:momenta:R:3:forces:R:3:magmoms:R:1 XYZ=T energy=-1249.3448486328125 stress="-3.4655110425774183e-07 1.6194026386529004e-07 2.153010880689976e-09 1.619372369532357e-07 2.1759272783583583e-07 -3.750804467017588e-07 2.144773914025677e-09 -3.750899111309991e-07 4.6027739131204726e-07" free_energy=-1249.3448486328125 pbc="F F F"
Rh      76.75256166      76.73766900      76.20645693  T       5.00000000      -0.37575890       0.07391979       0.32133592      -0.08780372       0.03523100       0.00183672       4.35573626
Fe      79.37345174      76.72104229      74.97978168  T      -5.00000000       1.38817932       1.99762751       0.41812156       0.03038651      -0.08515288       0.01115169       4.15020847
Fe      74.61907487      79.58390986      75.34085420  T      -5.00000000      -1.05322894       0.22435312      -1.54447485       0.04685350       0.02079765      -0.04199051       3.62681007
Fe      77.12365907      75.16219854      79.52501162  T      -5.00000000       0.81391973       0.11231057      -0.52504105       0.02067956       0.01055495      -0.00541996       3.70124388
O       78.35430112      77.82048913      76.16118379  T       0.00000000       0.24649710      -0.83567658       1.07963510       0.02258536       0.02333912       0.02178918       0.16738345
Fe      73.27061026      76.91972336      76.03354229  T      -5.00000000      -1.50219060      -0.31574062      -0.67511350       0.00906368      -0.00964767       0.01992235       4.31380606
Fe      74.61426960      74.98467608      78.20955040  T      -5.00000000      -0.14379538      -1.29383304      -0.27159284      -0.06120577       0.02579767      -0.04089347       4.32217026
Fe      71.97347603      74.93010785      77.24774513  T      -5.00000000       0.65512763       1.82765512      -0.39432767       0.01682758       0.07172674      -0.01761094       4.12381268
O       72.81999636      73.79535393      78.61761896  T       0.00000000       0.15461298      -0.24430720      -0.26177755       0.00806069       0.01731265       0.01817852       0.11019713
O       71.33981051      76.20195671      75.99505083  T       0.00000000       0.09986583       0.29415446      -0.22757255       0.01329279      -0.02032876       0.02898115       0.17045024
O       73.21282005      76.39481742      77.98471471  T       0.00000000       0.00958764      -0.12999434       0.36993237       0.00567049      -0.02994508      -0.01922596       0.33081257
O       73.96825058      74.87296067      76.22036753  T       0.00000000      -0.12442111       0.16421283      -0.66092470      -0.03593111      -0.02502178      -0.03645474       0.28347784
Fe      78.68395383      73.84457478      74.74862804  T      -5.00000000      -1.29826302      -1.20505366       1.68051225      -0.01112202       0.03683719      -0.05313591       4.24817133
Fe      76.97699268      72.62186470      77.83412608  T      -5.00000000       0.31324262       0.16536638      -0.95958708       0.05038417       0.00138143      -0.00162014       4.30162859
Fe      77.72076216      71.08542132      75.56501331  T      -5.00000000      -0.95697640       0.30699731       0.56537888      -0.04899198      -0.05867803      -0.00612360       4.07555056
O       78.26378746      71.92490031      73.93557274  T       0.00000000      -0.21215736      -0.36325091       0.10746032       0.00862416      -0.00950155       0.00853437       0.19731596
O       77.13920291      70.74943718      77.41685572  T       0.00000000       0.10512851      -0.69115087       0.31067186       0.01477630      -0.00609577      -0.02681974       0.14066148
O       75.56300579      72.80102538      74.37717697  T       0.00000000      -0.57250956       0.05575018       0.11578335      -0.01441300       0.02933531      -0.00732762       0.29772392
O       78.07279245      72.95047910      76.31603259  T       0.00000000      -1.19308237      -0.36321918      -0.15655099       0.02206912      -0.00547954       0.00269246       0.33176363
Rh      73.39774119      72.39341180      77.37804779  T       5.00000000       0.08036580      -0.69694023       0.75456065      -0.00039400      -0.04546154      -0.04121046       4.14008570
O       77.80084890      73.39217936      79.35069258  T       0.00000000       1.17520233      -0.84146483      -0.08342826      -0.00848889      -0.02197319       0.00503889       0.12043865
O       75.25871192      75.23028828      80.06534752  T       0.00000000       0.15855204      -0.42575869       0.50821036       0.00148105      -0.01389167       0.03700984       0.14369600
O       76.44231569      75.66911800      77.70370676  T       0.00000000      -0.02473934       0.06944619       0.82222435      -0.01712883      -0.01678414       0.03926885       0.27714080
O       75.15811145      73.01612310      77.90239150  T       0.00000000      -0.61750642      -0.70044120       0.32273066      -0.05785225       0.01187260       0.01576535       0.30721810
Fe      77.52293468      76.03754986      72.84113113  T      -5.00000000      -0.59827368      -0.63711618       1.11981965       0.03412080      -0.02867239      -0.01377702       4.31843376
Fe      74.82942842      77.39572453      73.35267516  T      -5.00000000       0.38861313      -0.64573532       1.32824526      -0.03752095      -0.00791869       0.02120638       4.32509422
Fe      75.22201760      75.10744063      71.16491787  T      -5.00000000      -0.03310776       0.31575368      -1.68909474       0.02832007       0.01167819      -0.00674820       4.24658966
O       74.14258861      76.82572293      71.54784476  T       0.00000000       0.49217038       1.05362849       0.03872302      -0.05192101       0.03703940      -0.01960579       0.17426810
O       76.91529841      75.90824083      70.96619339  T       0.00000000       0.14426859       0.01805712       0.21426195       0.06811483       0.01156059      -0.04906958       0.19032392
O       75.56274349      75.35953395      73.15415433  T       0.00000000      -0.94412247       0.40028908       0.29589833      -0.03798354      -0.01886284       0.08774171       0.33539721
O       76.72482578      77.76579086      73.27972588  T       0.00000000       0.02369638      -0.30796643       0.26441876       0.01939147      -0.01374057       0.00445500       0.19019702
Rh      72.63910849      75.56258489      72.40666898  T       5.00000000       0.89657635      -0.14130726       0.60066087      -0.00413948       0.04542047       0.02721047       3.86141205
O       73.02435112      78.88520787      76.20196561  T       0.00000000      -0.85918489      -0.75485432      -0.15498600       0.02493802      -0.02627665       0.07429154       0.13463385
O       74.25509634      79.24196978      73.45300100  T       0.00000000      -0.78645994      -0.16398207       0.27277740       0.00724983       0.02613627       0.02569099       0.13497330
O       75.17783082      77.57763023      75.55281397  T       0.00000000       0.82323774       0.77550052      -0.85851278       0.05856080      -0.06072533       0.01735049       0.26154086
O       73.28398625      76.40024315      74.08401310  T       0.00000000       0.64368744      -0.66531325      -0.51874383       0.02263862      -0.01483431      -0.06155029       0.28520706
Rh      76.87451272      72.84040148      72.88952906  T       5.00000000       3.48828280       1.08198634      -1.57683391       0.03936750       0.00468379       0.01431951       4.19476748
O       79.33926211      76.88813095      73.10506676  T       0.00000000       0.00778471      -0.01894068      -0.20898185      -0.00125699       0.02090269      -0.06656745       0.19207656
O       80.15817296      75.00205925      75.27895059  T       0.00000000       0.15568557      -0.90634598       0.78987548      -0.02476463       0.01571028      -0.01247311       0.14930004
O       78.21663004      74.19838929      72.84456337  T       0.00000000       0.83424388      -0.68427330       0.53277899      -0.00028279      -0.04081145       0.00884974       0.34011057
O       77.64760195      75.60375748      74.92441728  T       0.00000000      -0.50148277      -0.83484426       0.18243303       0.04895313      -0.04486269      -0.01538005       0.34116012
Rh      74.45661715      74.45661715      74.45661715  F       5.00000000       0.00000000       0.00000000       0.00000000      -0.12860097       0.21097475      -0.10670762       4.38769627
Fe      73.71249229      72.64068835      71.82424288  T      -5.00000000       1.28471304      -0.17296135      -0.80777769      -0.03109597      -0.06927055       0.05349831       3.85850620
Fe      74.76398122      71.00722919      74.52902617  T      -5.00000000       0.47690862      -0.85927905      -1.06346454       0.07285158       0.00136226      -0.02059393       4.25360632
Fe      72.36091336      72.22020965      74.55963683  T      -5.00000000      -0.29774213      -0.22890341       0.71980049       0.02525902       0.00567897       0.01163331       3.70898986
O       73.52409584      71.14677289      73.09129490  T       0.00000000      -0.27461822       0.13252024       0.28330886      -0.02944146       0.07444790      -0.01576386       0.14395812
O       72.91400086      73.78513228      73.44487489  T       0.00000000      -0.11413574      -0.84789342       0.10580377      -0.00390443      -0.05695771       0.03783384       0.22140819
O       75.63966524      73.12939095      71.47490851  T       0.00000000       0.40952969      -0.23493805      -0.07234139       0.07845306      -0.04235912       0.00906590       0.20787832
O       73.51097946      71.13481181      75.93665265  T       0.00000000       0.13493108       0.67524325      -0.71846242      -0.05578221       0.05044216       0.05071722       0.23978600
O       76.30446028      69.98820772      74.78695327  T       0.00000000      -0.16711489      -0.80251198      -0.48894275       0.08999389      -0.00680684       0.03719610       0.14206901
O       71.79926152      73.17577706      76.26744160  T       0.00000000      -0.23664289      -0.07194538      -0.16892812       0.03847697       0.03763629      -0.03110154       0.10057548
O       73.37063096      74.40623829      70.89661218  T       0.00000000      -0.04937187      -0.09592063      -0.16559574      -0.04471880      -0.02187584      -0.05888888       0.10101615
Au      65.74887232      68.53676424      72.27957354  T       0.00000000      -3.20741110      -0.22546381       0.96218232       0.02876775       0.04464445      -0.01683525       0.01316290
Au      65.65528133      71.36975099      71.56684703  T       0.00000000       1.97249318       1.31947537      -1.38005597       0.02199836      -0.02005159       0.00817293       0.00365929
Au      65.84488514      69.55694912      77.27681080  T       0.00000000       2.31499049       2.49072894      -0.62949241      -0.02991588       0.01166705       0.01157169       0.00628570
Au      65.05944653      70.40554205      74.27822717  T       0.00000000       1.33530960       2.86981397      -1.01364588      -0.00346972      -0.00489980       0.00025633       0.00537711
Au      66.44324737      71.87999239      78.64740797  T       0.00000000      -0.07644424      -0.48963163      -0.90815180       0.01842913      -0.01276109      -0.01189769       0.00025986
Au      65.43108704      73.14605125      73.76820540  T       0.00000000       0.21741478       3.32288031      -1.50759960      -0.00228789       0.01751193      -0.00425443       0.00120713
Au      66.83808944      75.66548199      73.39739166  T       0.00000000      -2.16680384       0.52548548      -1.11533201      -0.00575919       0.00197249      -0.00736364       0.00494142
Au      64.86475402      72.32955716      76.39113693  T       0.00000000       0.30688965      -3.43854651      -1.96009190      -0.00865321       0.00818919       0.00515319       0.00824608
Au      65.04904841      75.17795252      75.70377993  T       0.00000000       0.64248166       1.59991323       1.69600250      -0.00786580       0.00627415      -0.00600226       0.00571242
Au      66.05685462      76.28127465      78.13252020  T       0.00000000       2.43212595       0.29603746       0.09236402       0.01445928       0.00751078      -0.01330049       0.00368254
Au      64.92456718      77.57562216      74.39740619  T       0.00000000      -1.23256361       1.39214136      -0.57634308      -0.00493927      -0.00817814      -0.04225595       0.01085317
Au      65.44643924      78.69800638      76.82636260  T       0.00000000      -0.02828801      -0.97969763       0.68544205      -0.00312142      -0.00454168       0.00495258       0.00858435
Au      68.48239422      67.62308124      72.18200927  T       0.00000000       1.77228324      -2.50411177      -2.21460457       0.00925499       0.00444048      -0.00377837       0.00169554
Au      69.05069237      66.68310888      74.84042288  T       0.00000000      -0.73141635       2.72995965      -5.68049067       0.00762684       0.00023988       0.02492344       0.00259638
Au      70.10545181      69.87563888      70.95267764  T       0.00000000      -0.11917919       0.84698792      -0.12986681       0.01991462      -0.00431707      -0.01359553       0.00962262
Au      67.98920960      67.77100330      77.40378915  T       0.00000000      -0.08655286      -0.35323731      -5.29077976      -0.02673998       0.00282001       0.01968704       0.00139174
Au      70.15236039      66.05230488      77.34606271  T       0.00000000       3.93086461       0.79320923      -1.82166277      -0.01002745       0.00637411      -0.01437545       0.00576355
Au      69.54281327      69.39040297      75.53904280  T       0.00000000      -1.21480586       1.53077078      -0.92647878       0.01232161      -0.00099491       0.00996527       0.01038729
Au      69.54871855      68.02246834      79.78126210  T       0.00000000      -1.84997165      -1.45120670       0.65699772       0.01060154      -0.00792434       0.01335458       0.00046007
Au      66.85819067      72.13104678      68.99553297  T       0.00000000       2.20399652      -0.95985956       0.48276662      -0.00754741       0.00469115      -0.02506095       0.00857425
Au      69.21606476      70.69531319      68.44592835  T       0.00000000      -1.70034670      -1.97878696      -1.21716032      -0.00479694      -0.00636398       0.01151359       0.00135867
Au      69.14163181      72.86275656      66.80345893  T       0.00000000       0.92879193       0.55894499       1.72776546       0.00880381      -0.00432129       0.00697739       0.00939335
Au      67.37321505      69.56552075      70.24902308  T       0.00000000      -3.33175235       2.68200089       3.26579728      -0.01791441      -0.02435917       0.04177784       0.00438941
Au      67.79538535      70.24254589      73.06789505  T       0.00000000       3.69393274       0.33014251       1.33326928      -0.01094472      -0.03619397      -0.00480756       0.01533252
Au      70.20746379      71.41382161      73.45471603  T       0.00000000      -1.33383869       1.27948900       2.07425790       0.00843831       0.00728219      -0.00387759       0.00127839
Au      68.60349295      72.20249108      71.12084371  T       0.00000000      -0.92652896       0.50084493       3.12593977       0.01842352      -0.01457566      -0.02421926       0.01338345
Au      66.81660963      68.29652753      74.89425023  T       0.00000000      -0.29900292      -1.37749866      -2.28792305      -0.00497682       0.01415285      -0.01534718       0.00096917
Au      67.36774909      71.24810628      75.71065387  T       0.00000000       1.98471793       4.14143296       1.74224247       0.02722776      -0.00689572       0.02600051       0.01499724
Au      68.88669267      70.37160193      78.09726890  T       0.00000000      -1.53035030       2.48145838       2.14319341       0.01000037       0.00656934       0.02185744       0.01383027
Au      67.10853092      69.36419991      79.91572879  T       0.00000000      -0.22481635       2.11169106       0.29412955       0.02663125       0.00156897      -0.00218722       0.00927089
Au      67.98266530      71.85252674      81.01004264  T       0.00000000       0.22731622       1.02776588       1.61991123       0.01673995       0.00870174      -0.00073502       0.00281329
Au      70.89185239      70.73304348      80.03109248  T       0.00000000      -3.88713326      -3.82258533       1.46903859       0.00602602       0.00283870      -0.00193200       0.01025388
Au      69.33241534      73.02695959      78.93728473  T       0.00000000      -1.37956312      -2.42157864      -2.81146385      -0.00296083      -0.00211079       0.00646531       0.01124804
Au      69.33239939      69.67513904      82.05815264  T       0.00000000       0.27630939       1.14278283       0.44371955       0.01600698       0.00787187       0.01744282       0.00849837
Au      67.47985415      76.63034402      70.71869701  T       0.00000000      -1.36089033       1.45141430       0.65149766       0.01237748      -0.01901494       0.00927714       0.00085680
Au      68.09767766      74.61657479      68.91188003  T       0.00000000       1.78522688      -3.94688721      -1.37371863      -0.01329881      -0.00477788       0.01754958       0.00176403
Au      68.50149669      77.46940528      68.20788676  T       0.00000000      -0.40061309      -2.22443407      -0.79270195       0.01491937      -0.00446232      -0.00155826       0.00589454
Au      66.45037559      74.01791691      71.19240706  T       0.00000000      -1.05176135       1.67268364       0.41682601      -0.00171785      -0.01055567       0.01717382       0.00102854
Au      68.20574438      73.28631832      73.92393506  T       0.00000000       1.83028775       3.99892284      -1.65043470      -0.02150954      -0.01301716      -0.00343210       0.00680195
Au      69.36003341      74.76045726      71.94092576  T       0.00000000       0.30184374      -0.64309997       3.68927545      -0.02293947      -0.01080908       0.03938815       0.00763001
Au      69.76611677      72.39338228      76.20322287  T       0.00000000      -0.14811208      -1.21569753      -3.54660266      -0.04151876       0.00384415      -0.02966859       0.00551273
Au      67.25912832      73.92906062      76.71514381  T       0.00000000      -3.24101092       0.33580437      -0.75420736      -0.00971603      -0.00590819      -0.00578067       0.01082169
Au      66.92473584      74.30874001      79.86421132  T       0.00000000       1.09271369       4.13172420       0.69397961       0.00965983       0.00393416      -0.01270631       0.00411601
Au      67.91969140      76.96484462      80.42265299  T       0.00000000       2.54569657      -1.23680056       2.83767861       0.00562392      -0.01881479      -0.01443339       0.00443631
Au      69.26744660      74.69482160      81.39961441  T       0.00000000      -3.06153774       1.80583441       3.19154096       0.00284040      -0.01268327      -0.02128149       0.00498191
Au      68.86606576      75.63091948      78.10248884  T       0.00000000       0.42529359      -1.83965557       3.30641734      -0.02605486       0.00954270      -0.03430730       0.01215287
Au      69.94449977      77.41406165      82.23381288  T       0.00000000       0.97777374      -0.21708100      -1.69681310       0.00568520      -0.02560147       0.00510035       0.00183856
Au      68.65660625      79.21758588      70.45321216  T       0.00000000      -0.83488124       0.98560319       0.25386645      -0.00887545       0.01397212       0.00328059       0.00264369
Au      66.99899076      78.43486358      72.75774310  T       0.00000000       2.68210357       0.87806183       3.46616167       0.05380278      -0.02320713       0.00219444       0.00168729
Au      65.87408543      80.29452459      74.50809636  T       0.00000000       1.24733802      -3.87476693       0.19996352       0.01117125       0.02116001       0.00465767       0.00744663
Au      69.62583974      77.50279939      72.61136774  T       0.00000000       3.03129701      -1.61978537       0.05467837       0.00186051       0.00126217      -0.02334458       0.00560214
Au      67.42557475      81.08937070      72.14880769  T       0.00000000       2.60193664      -2.09139296      -1.28646172       0.00792565       0.01110989      -0.00000471       0.00734872
Au      67.45565967      76.92982617      75.74753594  T       0.00000000      -0.39340732      -1.17290019       0.89229692       0.00436162       0.00208518      -0.00618461       0.00965433
Au      67.12506815      80.99117175      76.95077545  T       0.00000000       0.33764355       1.44321416      -0.88908189      -0.00604321       0.00080164       0.02737437       0.00622989
Au      70.09729272      77.75317636      76.80128857  T       0.00000000       2.58047751      -1.71133414      -0.10857308       0.00887972       0.00184679       0.02114480       0.00738950
Au      68.56062544      79.48745012      74.96938934  T       0.00000000      -0.00476916       1.53425266       0.21693017       0.00256044       0.00255146       0.00858478       0.01270670
Au      67.89095329      78.55914309      78.14239400  T       0.00000000       0.85709681      -1.46587123      -1.59814468      -0.03607450       0.02847627      -0.00747342       0.00436752
Au      69.92010877      79.20995929      79.96218247  T       0.00000000       1.71005941      -0.33343447      -0.30604047      -0.00168747      -0.00704402       0.00178763       0.00181653
Au      69.95894997      80.51269470      77.43260367  T       0.00000000      -0.59122647       0.53157310       0.48665770      -0.00479598      -0.00566145       0.00353827       0.01001269
Au      67.85637649      82.34865009      74.58702820  T       0.00000000      -0.53614980      -0.67252721      -1.34374660      -0.02848220      -0.00823998      -0.00095751       0.00089136
Au      68.93722319      83.11507970      77.05610092  T       0.00000000      -0.17005312       2.23006665       1.95747798       0.01540240       0.00381378       0.04192469       0.00596759
Au      70.77174439      65.73089529      72.90938558  T       0.00000000       3.26935123      -1.76860186      -1.67884621      -0.00469969      -0.01372696      -0.01851720       0.00458151
Au      73.11091102      65.16348863      71.08031431  T       0.00000000       2.53258479      -0.44983304       1.55436810       0.00354683       0.00197057      -0.00235374       0.00896509
Au      72.63277212      64.80982736      76.72469532  T       0.00000000      -1.30598855      -0.38687772      -3.14293913      -0.00769300      -0.00265164       0.03123495       0.00483045
Au      73.03992363      64.62510577      73.96252961  T       0.00000000       4.40476922       1.33462104      -0.59214888      -0.00359526       0.00359175      -0.00213669       0.00677039
Au      73.90362165      64.56373961      79.19626819  T       0.00000000      -1.12856670       0.84725375       1.53916367       0.00439812      -0.01204338      -0.04572498       0.01177911
Au      71.43853761      68.92336048      68.54794407  T       0.00000000       0.20959203      -3.74933074      -3.62038735      -0.03443183      -0.01496720      -0.01141434       0.00263530
Au      73.73942914      67.32476018      69.39988697  T       0.00000000      -1.22399684       0.13269624       0.16477310       0.01299517      -0.02257944      -0.02035046       0.00065549
Au      73.94185978      69.41499674      67.48313928  T       0.00000000       0.03875007       3.76747528       1.38563278       0.00851898      -0.00753209      -0.00829101       0.00110178
Au      71.13183638      67.21127662      70.66328958  T       0.00000000      -3.46324971      -0.52240831       1.04025954      -0.02657891      -0.00254510       0.00952059       0.00028002
Au      70.86990569      68.63106353      73.25662494  T       0.00000000       0.06510674       0.13006091      -0.96254234      -0.00603962      -0.02870265      -0.01558590       0.00949663
Au      73.27333572      67.32654869      72.76053127  T       0.00000000       1.16827931      -3.08099407       0.21876815      -0.02490382       0.00927177       0.00776701       0.00994012
Au      72.92438487      69.55790293      70.91656578  T       0.00000000       2.17292274      -1.29664574      -1.30855987       0.01543184      -0.01136824      -0.00996535       0.00598590
Au      71.89203015      67.13192160      75.35352441  T       0.00000000      -1.07792680       2.74155735      -0.99210598      -0.00940843      -0.00790887      -0.01644395       0.00880413
Au      71.26018067      68.68173152      77.67248740  T       0.00000000       2.34683048      -1.41655211       2.94213544       0.01787099       0.02376294       0.03036942       0.00655097
Au      73.97977046      67.07767727      77.72078505  T       0.00000000       1.73432370      -2.60315578       0.30528360       0.00905624      -0.00768216       0.00258977       0.01107791
Au      71.82683536      66.44080170      79.48493811  T       0.00000000       3.18001731       0.64454625       2.29376952       0.01098836      -0.00476222       0.00603778       0.00089766
Au      71.83091750      68.43797420      81.54208281  T       0.00000000       0.94364937      -2.35664891       3.31743485       0.00892414       0.01220820      -0.00353540       0.00010878
Au      74.25422950      66.87435537      80.77305183  T       0.00000000       2.44969370      -0.55399466       1.34193049      -0.01917743      -0.00495516      -0.01257246       0.00048529
Au      73.40265700      69.27821002      79.34736282  T       0.00000000      -5.82966707       0.87634443      -1.94026227      -0.00731628      -0.01584914       0.00359518       0.00651696
Au      74.36786471      68.94307411      82.67082463  T       0.00000000       0.54390483      -1.37090343       1.20544024      -0.00487410       0.01038015       0.01150439       0.00000270
Au      72.00029855      73.48594440      66.33246304  T       0.00000000       0.48118604      -2.51874149      -1.69685347      -0.01304647      -0.01312955      -0.00189000       0.00140426
Au      74.05471860      71.66986438      65.83611292  T       0.00000000       1.46489840       3.27836959       1.34356513       0.00876135       0.00090597       0.03014137       0.00536531
Au      71.32924070      70.84999615      66.54708780  T       0.00000000      -1.87112418       0.80078015       0.26741640      -0.02929138       0.00457069      -0.00510082       0.00735480
Au      70.48970216      73.22160035      69.21142924  T       0.00000000       0.59365706      -1.69560770       0.66137729       0.00737968      -0.03027959       0.02131452       0.00831291
Au      72.71542414      71.60996958      68.84191009  T       0.00000000      -0.59806244       0.00896263       2.85560655       0.01596277       0.00898450      -0.03605235       0.01232044
Au      72.82338940      74.64994730      68.63814308  T       0.00000000      -0.46222450      -1.21302420       1.42986883       0.01351185      -0.00307000       0.00259377       0.00750609
Au      71.66029764      73.53091624      80.49347472  T       0.00000000      -0.53292664      -1.38787030       2.85891958       0.01540340      -0.01581957       0.00767064       0.00687765
Au      73.44273584      71.19262185      81.25805410  T       0.00000000      -1.69551896      -0.93542451       0.55081329      -0.02547375       0.00271280       0.01303294       0.00793675
Au      71.96795151      70.39135335      83.58960598  T       0.00000000       0.00103418      -1.74615402      -1.68611771       0.00361142       0.00887555      -0.02282117       0.00396578
Au      72.18102858      72.75194259      85.35137757  T       0.00000000       0.96487014      -0.63519376      -0.07925638      -0.02271716      -0.00800619      -0.01816773       0.01146060
Au      74.46589129      71.07434588      84.57662884  T       0.00000000       2.52876250       2.65169920      -2.56615559      -0.00462423       0.01942052      -0.00519763       0.00244254
Au      73.15764610      73.28886325      82.95698858  T       0.00000000       0.15884222       2.68644572       1.11709497      -0.01403877       0.00892588       0.02745701       0.01198637
Au      70.23759195      77.93713948      66.02682965  T       0.00000000       0.55333950       4.07381826      -3.23754046       0.00046323      -0.00356175       0.01411455       0.01222546
Au      72.50039325      76.30213610      65.76360302  T       0.00000000       1.92320673      -1.44932692       0.21901753      -0.01052347       0.00696334      -0.00442776       0.00112824
Au      70.21612655      75.41357317      67.23491367  T       0.00000000       2.13649279       0.28889486       1.81119222      -0.01031572       0.00868436      -0.00295179       0.00455979
Au      70.33736830      76.28539953      69.97545116  T       0.00000000      -0.60164293       1.43088009      -0.27125423       0.01825711      -0.00929108       0.01402945       0.01345360
Au      72.18056445      77.49273316      68.27793862  T       0.00000000      -0.30674385      -1.22502660      -1.16528184      -0.02285703      -0.00050774      -0.00523727       0.01411387
Au      70.85658581      76.51713486      79.73155123  T       0.00000000      -0.54672602      -0.36981639      -0.67746819       0.02157727      -0.01348423       0.00620149       0.00784804
Au      70.33476694      72.32536873      82.56540286  T       0.00000000       0.64355590      -0.73113536      -2.39243327       0.03789636      -0.01593628      -0.00364367       0.00265375
Au      70.66496050      74.77470868      83.87130299  T       0.00000000      -0.16416099       2.52234821      -1.55369183       0.01139747       0.02685694       0.01014241       0.00551616